/*--------------------------------*- C++ -*----------------------------------*\
| =========                 |                                                 |
| \\      /  F ield         | OpenFOAM: The Open Source CFD Toolbox           |
|  \\    /   O peration     | Version:  2.3.x                                 |
|   \\  /    A nd           | Web:      www.OpenFOAM.org                      |
|    \\/     M anipulation  |                                                 |
\*---------------------------------------------------------------------------*/
/*  Windows port by CFD support (www.cfdsupport.com) [based on Symscape]     *\
\*---------------------------------------------------------------------------*/
FoamFile
{
    version     2.0;
    format      ascii;
    class       volScalarField;
    location    "0";
    object      k;
}
// * * * * * * * * * * * * * * * * * * * * * * * * * * * * * * * * * * * * * //

dimensions      [0 2 -2 0 0 0 0];

internalField   uniform 0.1;

boundaryField
{
    mesh_min_max
    {
        type            kqRWallFunction;
        value           nonuniform 0();
    }
    building_model
    {
        type            kqRWallFunction;
        value           uniform 0.1;
    }
    building_West_window
    {
        type            zeroGradient;

    }
    building_East_window
    {
        type            zeroGradient;
    }
}


// ************************************************************************* //
