/*--------------------------------*- C++ -*----------------------------------*\
| =========                 |                                                 |
| \\      /  F ield         | OpenFOAM: The Open Source CFD Toolbox           |
|  \\    /   O peration     | Version:  2.4.0                                 |
|   \\  /    A nd           | Web:      www.OpenFOAM.org                      |
|    \\/     M anipulation  |                                                 |
\*---------------------------------------------------------------------------*/
FoamFile
{
    version     2.0;
    format      ascii;
    class       volScalarField;
    location    "70";
    object      k;
}
// * * * * * * * * * * * * * * * * * * * * * * * * * * * * * * * * * * * * * //

dimensions      [0 2 -2 0 0 0 0];

internalField   nonuniform List<scalar> 
43096
(
2.81891e-05
0.000136417
0.000170641
0.000145047
0.000106549
7.74777e-05
4.90407e-05
2.9262e-05
0.000181714
0.000896928
0.00113687
0.000928918
0.000665738
0.000482108
0.00037196
0.000287561
0.000381863
0.00326606
0.00352693
0.00237816
0.00143841
0.000903365
0.000694163
0.000727423
0.00118798
0.00731036
0.00666364
0.00425513
0.00242105
0.0013633
0.000964724
0.00112888
0.00128602
0.00938481
0.00855971
0.00545529
0.00303708
0.00162979
0.00108151
0.00126459
0.00125793
0.00938108
0.00851383
0.00534433
0.00291706
0.00154463
0.0010168
0.00120942
0.0011944
0.00740258
0.00647308
0.00388342
0.00209199
0.00113021
0.000787708
0.000952414
0.000572225
0.00381013
0.00334295
0.00195405
0.00106031
0.000617085
0.000457316
0.000480753
7.65485e-05
0.000695939
0.000910493
0.000821441
0.000648346
0.000483894
0.000348606
0.000244557
0.00115965
0.0141957
0.0107204
0.00722379
0.0047546
0.00344371
0.00335326
0.00276677
0.115858
0.0497037
0.0263295
0.0146393
0.0083926
0.00550941
0.00637906
0.00926354
0.142167
0.066948
0.0392078
0.0217473
0.0118229
0.00716725
0.0082954
0.01466
0.142468
0.0694258
0.0423339
0.0240709
0.0130395
0.00766122
0.00863421
0.0157754
0.142618
0.0672812
0.039373
0.0215489
0.0114478
0.00677965
0.00797652
0.015402
0.142281
0.0511718
0.0270021
0.0142635
0.00764204
0.00474597
0.0056018
0.0123247
0.0311329
0.0239458
0.0158969
0.00898675
0.00499093
0.00304355
0.00265315
0.00415508
4.72861e-05
0.000742983
0.00103497
0.000943424
0.000749331
0.000561974
0.000410963
0.000301436
0.00129479
0.0141938
0.0107182
0.00722181
0.00475291
0.003442
0.00335074
0.00336599
0.142905
0.0497008
0.0263266
0.0146366
0.00839035
0.00550699
0.00637353
0.0124713
0.100106
0.0669447
0.0392041
0.0217441
0.0118203
0.00716455
0.00828923
0.0200951
0.100036
0.0694218
0.0423298
0.0240675
0.0130367
0.00765852
0.00862824
0.0215161
0.10004
0.0672788
0.0393699
0.0215459
0.0114452
0.00677716
0.00797059
0.0210951
0.100172
0.0511703
0.0269996
0.0142609
0.00763996
0.00474414
0.00559786
0.0171504
0.0590518
0.0276643
0.0175085
0.00978541
0.00542882
0.00332588
0.00299562
0.00542339
7.36042e-05
0.000660345
0.000861563
0.000779692
0.000615296
0.00045864
0.000331105
0.000228699
0.00109913
0.00629243
0.00620584
0.0047294
0.00328013
0.00235674
0.00196415
0.00184765
0.028949
0.0241276
0.0171311
0.0105868
0.006307
0.00399823
0.00346489
0.00501157
0.0644273
0.0421666
0.0289474
0.017209
0.00964062
0.00559378
0.00462318
0.00760195
0.0659456
0.0479088
0.0340907
0.0203647
0.0112247
0.00634278
0.00501679
0.008262
0.0660177
0.0467297
0.0324609
0.018971
0.0102913
0.00577307
0.00466551
0.00793192
0.0641124
0.0358358
0.0233815
0.0132944
0.00720709
0.00415681
0.00351459
0.00611204
0.0191032
0.0159149
0.0119213
0.00703414
0.00395791
0.0024067
0.00196279
0.00243769
0.000125265
0.000163785
0.000714138
7.3743e-05
0.000607193
0.000947111
0.0028178
0.000170576
0.000768039
0.000976974
0.000660928
0.000859249
0.00341568
0.00365527
0.000152066
0.000973626
0.000846844
0.000862135
0.000801416
0.00362789
0.00338268
0.000113722
0.000813862
0.000625485
0.000780155
0.00064012
0.00300684
0.00262267
7.96379e-05
0.000596364
0.000456854
0.000615588
0.000479987
0.00225074
0.00194463
5.13532e-05
0.00043697
0.000347797
0.000458753
0.000348646
0.00168616
0.00149166
3.18824e-05
0.00033433
0.000264754
0.000331098
0.000246773
0.00133086
0.0012024
4.47361e-06
0.000247629
2.19389e-05
0.000228623
2.53522e-05
0.00100553
0.000253555
0.000828617
0.000346465
0.00246648
0.00109832
0.00536345
0.0150988
0.0118165
0.00114335
0.00268977
0.00316947
0.00629577
0.00657818
0.0115302
0.0115069
0.000969042
0.00305601
0.00229772
0.0062088
0.00562416
0.0101371
0.00888145
0.000699587
0.0021369
0.00142126
0.0047319
0.00401953
0.00705462
0.00585294
0.000503695
0.00132013
0.00089599
0.00328195
0.00278466
0.00453837
0.00377106
0.000385475
0.000845791
0.000669423
0.00235808
0.00211882
0.00308616
0.00278414
0.000303786
0.000654173
0.000659779
0.00196545
0.00190943
0.00265804
0.00276125
2.96651e-05
0.000662097
0.000104241
0.0018493
0.000312998
0.00320706
0.00205453
0.0029991
0.00102785
0.00658772
0.0289506
0.0276043
0.0635942
0.043139
0.00368483
0.00680645
0.00657943
0.0241332
0.021508
0.0340519
0.0294742
0.00256104
0.00621334
0.00430303
0.0171362
0.0138397
0.0226467
0.0182436
0.00155005
0.00398609
0.00247974
0.0105911
0.00831805
0.0135762
0.0106195
0.000957895
0.00229186
0.00140023
0.00631007
0.00500167
0.00783733
0.00613645
0.000708038
0.00131008
0.000954315
0.00400028
0.00352464
0.00478009
0.00414366
0.000717313
0.000937508
0.00104776
0.00346725
0.00386992
0.00408363
0.00467568
0.000116604
0.00108946
0.000188684
0.0050187
0.00417971
0.00661266
0.0104574
0.0070704
0.00130098
0.00892233
0.0644267
0.051702
0.0657339
0.0555046
0.00705039
0.00925959
0.0089116
0.0421756
0.0366984
0.0463829
0.0406564
0.00458137
0.00842431
0.00574772
0.0289545
0.0229164
0.0322836
0.0256844
0.00261698
0.00536644
0.00324031
0.0172147
0.0130785
0.0191148
0.0145608
0.00145879
0.00299198
0.00173291
0.00964489
0.00730707
0.010578
0.00801108
0.000981746
0.00161335
0.00110262
0.00559654
0.00472329
0.00607142
0.00506225
0.00108131
0.00107739
0.00120594
0.00462592
0.00538901
0.0049101
0.00572269
0.000195079
0.00125992
0.00021547
0.00761216
0.0107898
0.00811054
0.0116416
0.00903048
0.00123649
0.00905889
0.0659484
0.0567266
0.0660606
0.0566868
0.00905034
0.00943915
0.00911771
0.0479232
0.0422619
0.0479757
0.0423491
0.00583806
0.0086171
0.00582858
0.0340992
0.0271145
0.0341443
0.0271222
0.00328797
0.00543395
0.00323848
0.0203707
0.0154336
0.0203333
0.0153694
0.00175149
0.00298059
0.00170343
0.0112293
0.0084236
0.0111541
0.00833696
0.00110682
0.00157992
0.00106236
0.00634584
0.00522279
0.00625932
0.00513853
0.00120732
0.00103738
0.00117051
0.00501937
0.00583962
0.00493978
0.00576761
0.000215581
0.00122721
0.000202121
0.00827201
0.0116598
0.00822109
0.0116486
0.0090118
0.00123417
0.00759936
0.0660107
0.0556984
0.0647997
0.0523814
0.00901565
0.00784619
0.00732129
0.0467382
0.0409879
0.043097
0.0374537
0.00573889
0.00688756
0.00453401
0.032468
0.0257187
0.0293739
0.0230278
0.0031737
0.00415893
0.00244809
0.0189769
0.0143501
0.0170214
0.0127457
0.00166522
0.00224147
0.00129781
0.0102958
0.00772753
0.009212
0.00686219
0.00103958
0.001202
0.0008468
0.00577597
0.00479671
0.00515215
0.00430672
0.00115092
0.000829848
0.00095595
0.00466769
0.00549154
0.00422872
0.00501178
0.000197228
0.00100622
0.000161867
0.00794152
0.0115951
0.00730737
0.01069
0.00718702
0.000692757
0.00418942
0.0641112
0.0449281
0.0320682
0.0312277
0.00689047
0.00438351
0.00403513
0.0358402
0.0308547
0.0271313
0.023485
0.00424913
0.00379488
0.00241572
0.023387
0.0184695
0.0181229
0.0140889
0.00229233
0.00220578
0.00129759
0.0132995
0.0101481
0.0102956
0.00775243
0.00122014
0.00118597
0.000731197
0.00721078
0.00551581
0.00562422
0.00429477
0.000802625
0.000681615
0.000515725
0.00415884
0.00356323
0.0033128
0.00285493
0.00090394
0.000503759
0.000536947
0.00351597
0.00408911
0.0028053
0.00318928
0.000152336
0.000549666
7.40015e-05
0.00612067
0.0103128
0.00432891
0.00380683
0.00363908
4.70967e-05
0.000460432
0.0191037
0.0161695
0.000453985
0.00317223
0.00354519
0.000474124
0.000426322
0.0159179
0.0146325
0.0033144
0.00308954
0.00213769
0.000406375
0.000262934
0.0119253
0.0093729
0.00293613
0.00194113
0.00115935
0.000245172
0.000147613
0.00703757
0.00530881
0.00179774
0.00111548
0.000661238
0.000137067
8.33672e-05
0.00396006
0.00304552
0.00103003
0.000667079
0.000468305
7.78876e-05
5.27472e-05
0.00240771
0.00206819
0.000622743
0.000469875
0.00047414
5.03764e-05
4.22616e-05
0.0019632
0.002105
0.000454556
0.000463355
6.20115e-05
4.09631e-05
6.97467e-06
0.00244015
0.001635
0.000466746
6.03659e-05
0.000637295
0.00099627
0.00378797
4.70059e-05
0.000661773
0.00104982
0.0042029
0.000906541
0.00478801
0.00490651
0.000742856
0.0010294
0.00518416
0.00532208
0.000842915
0.00474845
0.00434085
0.00103487
0.000967394
0.00514617
0.00471884
0.000673055
0.00379898
0.00328826
0.000943283
0.00077768
0.0041249
0.00358053
0.000505508
0.00281291
0.00242632
0.000749147
0.000586853
0.00305527
0.00264177
0.00036703
0.00210305
0.00187083
0.000561777
0.000431225
0.00228783
0.00204456
0.000262732
0.00167764
0.00158095
0.000410762
0.000321978
0.0018552
0.00177203
2.71375e-05
0.00138778
0.000283185
0.000301232
3.26827e-05
0.00162357
0.000385622
0.00873664
0.0270008
0.0232481
0.00129441
0.0108531
0.0553352
0.0323148
0.000350783
0.00525636
0.0044235
0.00336733
0.000494036
0.00675384
0.0103065
0.0622384
0.142163
0.086743
0.142906
0.0829598
0.10017
0.0967214
0.00771961
0.0128111
0.0210662
0.0124732
0.0201168
0.0176677
0.0448677
0.0936177
0.142494
0.0956521
0.100106
0.0965864
0.100036
0.0968004
0.0213426
0.0155231
0.0230387
0.0200947
0.0453336
0.0212102
0.0481147
0.0963434
0.142554
0.0964086
0.100036
0.0970121
0.100039
0.0970828
0.0230359
0.0157229
0.0230253
0.0215148
0.0481061
0.021473
0.0481135
0.0957565
0.142198
0.0938469
0.10004
0.0970123
0.10011
0.0968878
0.0229739
0.0143734
0.0212005
0.0210935
0.0480314
0.0198161
0.0451941
0.087426
0.115568
0.0646163
0.100172
0.0972312
0.142055
0.0844674
0.0208589
0.00840571
0.00713321
0.0171482
0.0446187
0.0115036
0.0192903
0.0280195
0.000504435
0.00349884
0.0590516
0.0365175
0.000519496
0.00435092
0.0206544
0.00365435
0.00335282
0.0276644
0.0232404
0.00448603
0.00394749
0.0122367
0.00317942
0.00207553
0.0175093
0.0134191
0.00371991
0.00240198
0.00676492
0.00192157
0.00118809
0.0097863
0.00737649
0.00221965
0.0013887
0.00386343
0.00109767
0.000711346
0.00542939
0.00421515
0.00128267
0.000840038
0.00268101
0.000664333
0.000505414
0.00332612
0.0029565
0.0007846
0.000615869
0.00307664
0.000489244
0.000515636
0.00299552
0.00362908
0.000601955
0.000715141
0.00382073
0.000525216
6.94792e-05
0.00542027
0.00954036
0.000750376
0.000110946
0.000661635
0.00105
0.00420268
7.66464e-05
0.000636931
0.000996994
0.00378673
0.00102912
0.00518351
0.00532128
0.000695214
0.000906089
0.00478613
0.0049046
0.000967103
0.00514539
0.00471803
0.000909673
0.000842518
0.00474649
0.00433899
0.000777386
0.00412418
0.00357984
0.000820669
0.00067277
0.00379718
0.00328666
0.00058661
0.00305466
0.00264115
0.000647674
0.000505351
0.00281135
0.00242495
0.000431023
0.0022873
0.00204399
0.0004834
0.000367
0.00210171
0.00186963
0.000321797
0.0018547
0.0017713
0.000348258
0.000262779
0.00167641
0.00157994
3.26685e-05
0.00162239
0.000385325
0.000244307
2.71539e-05
0.00138717
0.00028308
0.0108524
0.0553343
0.0323131
0.00116013
0.00873446
0.0270001
0.0232447
0.000493672
0.006747
0.0102945
0.00276341
0.000350636
0.00525083
0.00441833
0.0829581
0.10017
0.0967209
0.115861
0.0622348
0.142165
0.0867398
0.0200946
0.0176558
0.044822
0.00924558
0.00771022
0.0127895
0.0210416
0.096587
0.100036
0.0968005
0.14216
0.0936147
0.142492
0.0956467
0.0452927
0.0211989
0.0480711
0.014631
0.0213178
0.0154988
0.0230173
0.0970125
0.100039
0.097083
0.14246
0.0963373
0.14255
0.0964034
0.0480669
0.0214621
0.0480698
0.0157459
0.0230142
0.0156986
0.0230038
0.097013
0.10011
0.0968882
0.142619
0.0957527
0.142193
0.0938448
0.0479921
0.019806
0.0451482
0.0153725
0.0229519
0.0143495
0.0211764
0.0972313
0.142055
0.0844673
0.142281
0.087425
0.115564
0.064616
0.0445774
0.0114988
0.0192676
0.0122981
0.0208343
0.00839051
0.00712452
0.036518
0.000522753
0.00435096
0.0311331
0.0280192
0.000504681
0.00349864
0.0232396
0.004486
0.00394725
0.0239442
0.0206521
0.00365401
0.00335193
0.0134179
0.00371967
0.0024017
0.0158938
0.0122338
0.00317848
0.00207451
0.00737546
0.0022194
0.00138846
0.00898373
0.00676261
0.00192054
0.00118759
0.0042143
0.00128245
0.00083978
0.00498872
0.00386187
0.00109715
0.000711049
0.00295566
0.000784382
0.000615562
0.00304187
0.00267987
0.000664054
0.000505327
0.00362781
0.000601673
0.000714613
0.00265086
0.0030738
0.000489154
0.000515498
0.00952921
0.000749931
0.000110781
0.00414586
0.0038158
0.000524949
6.94897e-05
0.000606418
0.000947614
0.00281443
2.70005e-05
0.000134528
0.000165386
0.000712833
0.000858291
0.00341273
0.00365251
0.000147639
0.000179418
0.000766944
0.000976429
0.000800535
0.00362523
0.00338017
0.000181775
0.000147836
0.000973115
0.000846596
0.000639389
0.00300452
0.0026206
0.000143468
0.000115512
0.00081365
0.000625483
0.000479467
0.00224885
0.00194296
0.000112005
7.61725e-05
0.000596378
0.000456963
0.000348295
0.00168456
0.00149019
7.30101e-05
5.28365e-05
0.000437092
0.000347981
0.000246551
0.00132932
0.00120118
5.12076e-05
3.42778e-05
0.000334549
0.000265006
2.53279e-05
0.00100433
0.000253207
2.89982e-05
4.71228e-06
0.000247917
2.19585e-05
0.0053592
0.0150984
0.0118119
0.000192565
0.000827338
0.000347109
0.00246523
0.00657495
0.0115261
0.0115029
0.000895635
0.00114273
0.00268861
0.00316817
0.00562112
0.0101331
0.00887761
0.001136
0.000968671
0.0030548
0.00229657
0.00401711
0.00705111
0.00584982
0.000928317
0.000699503
0.00213585
0.00142054
0.00278285
0.00453578
0.00376888
0.000665359
0.000503767
0.00131953
0.00089582
0.0021172
0.00308416
0.00278224
0.000481841
0.000385661
0.000845712
0.000669656
0.00190769
0.00265554
0.00275828
0.000371798
0.000304034
0.0006545
0.000660094
0.000312579
0.00320054
0.00204824
0.000287465
2.97022e-05
0.000662447
0.000104143
0.0275984
0.063594
0.0431315
0.000381163
0.00299787
0.00107005
0.00658579
0.0215025
0.0340448
0.0294674
0.00326448
0.00368333
0.0068044
0.00657725
0.0138348
0.0226404
0.0182379
0.00352501
0.0025597
0.00621119
0.00430104
0.00831415
0.013571
0.0106149
0.00237648
0.00154918
0.00398411
0.00247821
0.0049989
0.00783339
0.00613323
0.00143729
0.000957631
0.0022904
0.00139948
0.00352224
0.00477725
0.00414109
0.000902755
0.000708236
0.00130946
0.000954349
0.00386522
0.00407997
0.00466975
0.000693736
0.000717623
0.000937672
0.00104794
0.00417051
0.00659577
0.010436
0.000726599
0.000116463
0.00108957
0.00018832
0.0516918
0.065731
0.0554895
0.00117061
0.00706829
0.0013025
0.00891737
0.0366904
0.0463707
0.0406469
0.00730746
0.00704809
0.00925485
0.00890848
0.0229099
0.0322756
0.0256774
0.00666055
0.00457928
0.00842133
0.00574531
0.0130734
0.0191087
0.0145553
0.00425243
0.00261542
0.00536445
0.00323838
0.00730335
0.0105733
0.00800716
0.00241905
0.00145805
0.00299009
0.00173187
0.0047203
0.00606808
0.00505931
0.00136218
0.000981743
0.00161242
0.00110247
0.00538272
0.0049062
0.00571576
0.000963961
0.00108155
0.00107735
0.0012059
0.0107691
0.00809173
0.0116214
0.00112726
0.000194666
0.00125968
0.000215
0.0567055
0.066065
0.0566677
0.00128826
0.00902446
0.00111511
0.00905453
0.0422512
0.0479625
0.0423392
0.0093783
0.00904699
0.00943481
0.00911452
0.0271071
0.0341356
0.0271149
0.00855553
0.00583565
0.00861396
0.00582581
0.0154279
0.0203268
0.0153637
0.00545227
0.00328606
0.00543126
0.00323646
0.00841946
0.0111492
0.00833285
0.0030346
0.00175047
0.0029786
0.00170227
0.00521965
0.00625582
0.00513564
0.00162838
0.00110672
0.00157876
0.00106217
0.0058333
0.00493626
0.00576103
0.00108062
0.0012074
0.00103736
0.00117039
0.0116406
0.00820256
0.0116285
0.0012626
0.00021507
0.00122686
0.000201634
0.0556883
0.064801
0.0523753
0.00119471
0.009009
0.00123612
0.00759862
0.0409801
0.0430911
0.0374474
0.00937702
0.00901261
0.00784519
0.00731886
0.0257118
0.0293673
0.0230216
0.00850968
0.00573619
0.00688517
0.00453165
0.0143446
0.0170153
0.0127404
0.00534087
0.00317169
0.00415662
0.00244634
0.00772349
0.0092074
0.00685855
0.00291456
0.00166413
0.00223979
0.00129696
0.00479386
0.00514925
0.00430439
0.00154311
0.00103948
0.00120126
0.00084671
0.00548588
0.00422579
0.00500578
0.001016
0.00115098
0.000829835
0.000955709
0.0115757
0.00728955
0.0106689
0.00120749
0.000196732
0.00100571
0.000161541
0.0449241
0.0320673
0.0312253
0.0011945
0.00718638
0.000642445
0.00418914
0.0308493
0.0271278
0.0234805
0.00740092
0.00688805
0.00438294
0.00403335
0.0184637
0.018118
0.0140839
0.00646979
0.00424685
0.00379315
0.00241421
0.0101433
0.0102911
0.00774854
0.00388062
0.00229071
0.00220439
0.00129676
0.00551268
0.0056211
0.00429234
0.00209003
0.00121939
0.00118526
0.000730941
0.00356117
0.00331102
0.00285347
0.00112915
0.000802589
0.000681431
0.000515798
0.00408453
0.00280368
0.00318566
0.000786987
0.000903844
0.000503866
0.000536903
0.0102927
0.0043188
0.00379824
0.000950515
0.000152038
0.000549522
7.38777e-05
0.0161675
0.000454166
0.00317166
0.000563115
0.00363861
4.72292e-05
0.000460091
0.0146284
0.00331369
0.00308816
0.00380896
0.00354352
0.000473759
0.000425842
0.00936862
0.00293475
0.00193968
0.00334075
0.00213632
0.000405907
0.000262514
0.00530566
0.00179637
0.00111454
0.00195243
0.00115866
0.000244758
0.000147425
0.00304352
0.00102917
0.000666415
0.00105936
0.000661038
0.000136871
8.32575e-05
0.0020668
0.000622183
0.000469354
0.000616572
0.000468401
7.77731e-05
5.26645e-05
0.00210251
0.00045407
0.000462582
0.000456916
0.000474173
5.02824e-05
4.22094e-05
0.00162973
0.000465978
6.01848e-05
0.000479911
6.195e-05
4.09092e-05
6.58225e-06
0.000771751
2.28564e-05
8.66309e-05
5.98871e-05
0.000207463
0.000345148
0.000199629
0.00147493
0.000160093
0.000425407
0.00045593
0.000541505
0.00137721
0.000488384
0.001578
0.000166865
0.000519366
0.000597236
0.000591964
0.00159261
0.000507737
0.00135261
0.000132908
0.000456875
0.000540549
0.000499907
0.00142142
0.000421496
0.00105628
9.421e-05
0.000357714
0.000424171
0.000381729
0.00112555
0.00032371
0.000803619
6.27206e-05
0.000268642
0.000313387
0.00027898
0.000858657
0.000241631
0.000604832
4.41922e-05
0.000197635
0.000224918
0.000199544
0.000648538
0.000176371
0.000354602
2.24321e-05
0.000129658
0.000146654
0.000104277
0.000435434
9.07548e-05
0.00268509
0.000487593
0.0002415
0.000741613
0.00203977
0.0010304
0.000699987
0.00491397
0.00106482
0.00138461
0.00345211
0.00372072
0.00457078
0.00166005
0.0049069
0.00109536
0.00172821
0.00389532
0.00380526
0.00504297
0.00164782
0.00363809
0.000830808
0.00133989
0.00314696
0.00293392
0.00392297
0.0011762
0.00247833
0.000590679
0.000901322
0.00224671
0.00207698
0.0026977
0.000784278
0.00178645
0.000436964
0.000623591
0.00162974
0.00153188
0.00190557
0.00056324
0.00149981
0.000345309
0.000488405
0.0013027
0.00125623
0.001538
0.00046552
0.0012756
0.00022353
0.000425485
0.00108862
0.000963885
0.00139408
0.000356275
0.0132752
0.00162282
0.000575924
0.00276639
0.00920746
0.00525221
0.00279168
0.0163105
0.0038197
0.00483142
0.0126603
0.0130494
0.0160862
0.00530328
0.0125134
0.00314649
0.00464112
0.0114219
0.01053
0.0136891
0.00405089
0.00781865
0.00198796
0.00301838
0.00756402
0.00674891
0.00878915
0.0024964
0.00464402
0.00119945
0.00178118
0.0046059
0.00409476
0.00524623
0.00146043
0.0029582
0.000792491
0.00107545
0.002915
0.0026749
0.00324837
0.000926001
0.00258102
0.000685724
0.000804693
0.00232824
0.00233666
0.00255755
0.000803771
0.00314957
0.000675008
0.000899328
0.00271713
0.00269576
0.00311366
0.000869804
0.0253448
0.00496149
0.00128291
0.00880378
0.02367
0.0095349
0.00565806
0.0277132
0.00771126
0.00839598
0.0258939
0.0255667
0.0280537
0.00879585
0.0205238
0.00573145
0.00761841
0.0208976
0.018877
0.0227354
0.00652237
0.0123565
0.00346581
0.00486113
0.0130287
0.0114137
0.0141357
0.00393284
0.0068942
0.0019322
0.00272301
0.00742302
0.00643981
0.00797124
0.00214926
0.00401155
0.00113947
0.00149757
0.00425752
0.00380047
0.00451512
0.00123754
0.00334889
0.000964309
0.00103028
0.00317252
0.00321145
0.00330912
0.00102747
0.00450465
0.00112514
0.00120858
0.00415759
0.00430364
0.00433943
0.00121047
0.0271328
0.00602524
0.00118402
0.00991109
0.0272219
0.0095243
0.00581031
0.0316062
0.00985487
0.00950142
0.0315486
0.0313025
0.0318017
0.0100117
0.0238382
0.00730499
0.00873583
0.0260241
0.0235252
0.0263587
0.00745289
0.0143198
0.00440019
0.00556461
0.0162188
0.0141318
0.0164345
0.00448838
0.00785309
0.00237493
0.00309087
0.00905015
0.00776805
0.00915522
0.00241436
0.00442548
0.00132992
0.00165091
0.00499654
0.00440059
0.00503207
0.00134084
0.00355461
0.00107026
0.00108249
0.00352717
0.00355046
0.00353073
0.00106965
0.00482292
0.00126956
0.00126465
0.00462541
0.00480829
0.00463088
0.00127284
0.0267182
0.00584075
0.00136433
0.00961619
0.0269487
0.00975579
0.00587581
0.0299781
0.00985844
0.00897281
0.0311722
0.0309074
0.0303143
0.00937358
0.0220097
0.00724258
0.00800523
0.0254399
0.0229226
0.0244656
0.00679777
0.0129328
0.00428394
0.0049542
0.0156302
0.013565
0.0149129
0.00395633
0.00697995
0.00226579
0.0026788
0.00856798
0.0073379
0.0081558
0.00208259
0.00392504
0.00125112
0.00142128
0.00468581
0.00411683
0.00445727
0.00115837
0.00323344
0.00100897
0.000953825
0.00331883
0.00335197
0.00319121
0.00095199
0.00450226
0.0012191
0.00114662
0.00444361
0.00463515
0.00430772
0.00115723
0.0201416
0.00509914
0.000994066
0.00884435
0.02284
0.00748802
0.00414442
0.0213772
0.00770296
0.00621549
0.0243706
0.0239498
0.0217678
0.00643936
0.0149918
0.00548184
0.00529463
0.0189602
0.0170018
0.016761
0.00446351
0.00859031
0.00311383
0.0031114
0.0112373
0.00980062
0.0098947
0.00248735
0.00466868
0.00164706
0.0016693
0.00612982
0.00530457
0.00540411
0.0013255
0.00273894
0.000936185
0.000925502
0.00343059
0.00305943
0.00305798
0.000779224
0.00235499
0.000789899
0.00066769
0.00256401
0.00260196
0.00232064
0.000670842
0.00322929
0.000959272
0.000794048
0.00347469
0.00362373
0.00311022
0.000789138
0.00664035
0.00232601
0.000339258
0.00369685
0.00929544
0.00223892
0.00149105
0.00915539
0.00401038
0.00247523
0.0118042
0.0118698
0.00907023
0.00257728
0.00690751
0.00283039
0.00216735
0.00966107
0.00877006
0.00760954
0.00184054
0.0040792
0.00157072
0.00128626
0.00579599
0.00509965
0.00464206
0.00104285
0.00232788
0.000859634
0.000720564
0.00324222
0.00285864
0.00263945
0.000593962
0.00146538
0.000533448
0.000437351
0.00193713
0.00177027
0.00160235
0.000382381
0.00121487
0.000451733
0.000325517
0.00149532
0.00149196
0.00122663
0.000317452
0.0012058
0.000438492
0.000314373
0.00166303
0.00161471
0.00127481
0.000270583
0.00137265
0.000297665
0.000485895
8.14549e-05
0.0013395
0.000273819
0.000488045
0.00289568
0.000824334
0.00253261
0.000745437
0.00269546
0.000893888
0.0027134
0.00300986
0.000896931
0.00285215
0.000996595
0.00280245
0.000982281
0.00306235
0.00251401
0.000759279
0.00247442
0.000899705
0.00234727
0.000832378
0.00264907
0.0019414
0.000585796
0.00193379
0.000711997
0.00181461
0.000644336
0.00206749
0.00147697
0.000434348
0.00146932
0.000532653
0.00137974
0.000479161
0.00157104
0.00114228
0.000314224
0.0011185
0.000386275
0.00105785
0.000351775
0.00120264
0.000773743
0.000180963
0.000831265
0.000278959
0.000700323
0.000209299
0.000912049
0.00879024
0.00437016
0.00209237
0.00127688
0.00740447
0.00491043
0.0025772
0.116867
0.073043
0.141147
0.143605
0.0957307
0.0944038
0.108992
0.121903
0.12056
0.142367
0.105918
0.122302
0.121085
0.106401
0.12357
0.124296
0.142573
0.106865
0.124519
0.123325
0.107057
0.122889
0.12413
0.142482
0.106966
0.123576
0.123304
0.106665
0.119945
0.117596
0.141144
0.106099
0.111379
0.120631
0.107531
0.0281138
0.0435725
0.00592099
0.0517315
0.0224823
0.0571887
0.00853254
0.0013512
0.000176735
0.000364198
7.93808e-05
0.00131594
0.000253919
0.000474805
0.00301261
0.000911159
0.00284395
0.000747578
0.00304958
0.000903668
0.00281496
0.00314844
0.00102375
0.00325589
0.00101392
0.00320262
0.00100025
0.00320196
0.00263148
0.000874391
0.00282439
0.000918266
0.00268099
0.000850229
0.00277214
0.00203159
0.00067852
0.00220648
0.000727679
0.00207143
0.000658688
0.00216355
0.00154673
0.000506002
0.00167843
0.000544841
0.00157815
0.000490312
0.00164465
0.00120764
0.000375871
0.00129707
0.000396635
0.00123597
0.000361893
0.00126788
0.000835724
0.000227166
0.00101075
0.000288322
0.000862823
0.000216711
0.000980239
0.0101861
0.00554167
0.00293954
0.0012963
0.0108088
0.00531273
0.00273957
0.120006
0.111623
0.10655
0.143537
0.120569
0.107128
0.107837
0.10623
0.0995337
0.100033
0.102967
0.0991005
0.106409
0.103025
0.106707
0.0992046
0.10004
0.103231
0.0992432
0.106615
0.103333
0.106513
0.0992375
0.100037
0.103285
0.0991952
0.106648
0.103131
0.112368
0.101406
0.103192
0.103071
0.107927
0.107635
0.105611
0.0330435
0.0717829
0.00950803
0.0553922
0.035227
0.0673588
0.00909479
0.00106091
0.000295192
0.000473822
5.93057e-05
0.00123745
0.000244213
0.000395876
0.00198202
0.000781535
0.00218833
0.000524006
0.00233502
0.000623068
0.00185792
0.00209737
0.000852002
0.00249317
0.000685493
0.00246089
0.000679554
0.00212303
0.00178648
0.000721931
0.00219492
0.000621461
0.00208683
0.000575313
0.00187812
0.00138753
0.000555955
0.00172364
0.000488997
0.00161798
0.000440982
0.00147806
0.00105435
0.000411322
0.00131048
0.000363109
0.00122953
0.000324242
0.00112423
0.000800669
0.000297592
0.00099712
0.000261551
0.000938316
0.000232594
0.000853645
0.000490868
0.000168029
0.000714788
0.000173086
0.000596834
0.000124366
0.000593956
0.00407551
0.00364363
0.00181694
0.000851238
0.00536998
0.00288515
0.00124232
0.0281435
0.0406932
0.0530935
0.00432487
0.0577046
0.0197411
0.00871933
0.0488141
0.0853342
0.0651959
0.0132697
0.0882828
0.0465581
0.0140413
0.051766
0.0916145
0.0659588
0.0145771
0.0918183
0.0517168
0.0142605
0.0508753
0.09127
0.0658612
0.0143146
0.0904606
0.0513981
0.0143565
0.0394711
0.0814152
0.0589753
0.0132078
0.0738361
0.0441814
0.0113504
0.0103939
0.025993
0.00479354
0.0051045
0.0151874
0.0157989
0.00277976
0.00103288
4.94308e-05
0.000396906
0.000417597
0.000266703
0.00123734
0.00026391
0.00118497
0.000106448
0.000427776
0.000661946
0.000435685
0.0015702
0.000264017
0.00149706
0.000474313
0.000508293
0.00224467
0.00174331
0.00193288
0.000331002
0.00106203
5.93688e-05
0.000294731
0.000472757
0.000244631
0.000394155
0.00123739
0.00141256
0.000480893
0.000382969
0.00196191
0.000311113
0.00166963
0.00164874
0.00159474
0.000753489
0.000599443
0.00258207
0.000489165
0.00218241
0.00190764
0.00154284
0.000164623
0.000520507
0.000594612
0.000558986
0.00158202
0.000500088
0.00205766
0.000506756
0.00090168
0.00252041
0.00192731
0.00269807
0.00058122
0.00214351
0.00062032
0.000928337
0.00288999
0.00219458
0.00282785
0.000595458
0.00198409
0.000524687
0.000782434
0.00219043
0.000623775
0.00186007
0.00233723
0.00207428
0.00068358
0.000807749
0.0024877
0.000643919
0.00211708
0.00243606
0.0015389
0.000164949
0.000469936
0.000554693
0.000583415
0.00148758
0.000498275
0.0021702
0.000618356
0.000944717
0.00288365
0.00219515
0.00284555
0.000602471
0.00209501
0.000553357
0.000919601
0.00261301
0.00201762
0.00272411
0.000590101
0.00209918
0.000686145
0.000852846
0.00249498
0.000680251
0.00212483
0.00246285
0.00204233
0.000638453
0.000840173
0.00230877
0.000670682
0.0019724
0.00239033
0.00127507
0.0001293
0.000371419
0.00044062
0.000483338
0.0012019
0.00040716
0.00180636
0.000536557
0.000734121
0.00243046
0.00190307
0.00229667
0.000492235
0.00168339
0.000431235
0.000701876
0.00198123
0.00158364
0.00211653
0.000474612
0.00178794
0.000621924
0.000722634
0.00219645
0.000575821
0.00187955
0.0020885
0.00168095
0.000508513
0.000698158
0.00184938
0.000556803
0.00158479
0.00195989
0.000985034
9.07722e-05
0.000280147
0.000327512
0.000365805
0.000921716
0.000310702
0.00137716
0.000414559
0.000532783
0.00181278
0.00146665
0.0016953
0.000374404
0.00127577
0.000324102
0.000508919
0.00146274
0.00119738
0.00156033
0.000359238
0.00138861
0.000489292
0.000556461
0.00172483
0.000441329
0.00147914
0.00161928
0.00129187
0.000379731
0.000532785
0.00141125
0.000423015
0.00121039
0.00150497
0.000747795
6.00931e-05
0.000207004
0.000235951
0.000265911
0.000698223
0.00023114
0.00104588
0.000310745
0.000396448
0.00135079
0.00111054
0.00127411
0.000280328
0.000974571
0.000241601
0.000380861
0.0011305
0.00091867
0.00119031
0.000268485
0.00105509
0.000363213
0.000411594
0.0013113
0.000324343
0.00112496
0.00123043
0.000981585
0.000274721
0.000392287
0.00107401
0.000309197
0.00091961
0.00114519
0.00055639
3.92832e-05
0.000141428
0.000159891
0.00018911
0.00050328
0.000167342
0.000807701
0.000230828
0.000307862
0.00105983
0.000855922
0.00101194
0.000207341
0.000750184
0.000169363
0.00029609
0.0008962
0.000691229
0.000951246
0.000197311
0.000801123
0.00026154
0.000297694
0.000997649
0.000232595
0.000854096
0.000938911
0.000741718
0.000188309
0.00028391
0.000808597
0.000220813
0.000678868
0.000875708
0.000246111
1.75384e-05
1.16078e-05
1.52738e-05
8.39109e-05
6.36436e-05
7.17366e-05
0.000510122
0.000155594
0.000187784
0.000799732
0.000606482
0.000695314
0.000111175
0.000359602
1.27553e-05
0.000153405
0.000147903
7.95978e-05
0.000510003
8.83628e-05
0.000491039
0.000173002
0.000168022
0.000715008
0.000124313
0.000594129
0.000597101
0.000342714
1.83806e-05
0.000138129
0.000112353
0.000101392
7.83711e-05
0.000422157
0.000498946
0.000179555
0.000139185
0.000842665
9.8113e-05
0.000697916
0.00060624
0.0034358
0.000581333
0.00126743
0.00306028
0.00260417
0.00403223
0.000850886
0.00382028
0.000260907
0.00131949
0.0020926
0.00120105
0.00576164
0.000809039
0.00501035
0.00149636
0.00165627
0.00805075
0.0057766
0.00711076
0.000999323
0.00407813
0.000850537
0.00364486
0.00181635
0.00288751
0.00124224
0.00537155
0.00645712
0.00307748
0.002516
0.0204091
0.00148739
0.0109845
0.0100961
0.00512885
0.00109589
0.00175051
0.00394819
0.00388831
0.0051696
0.00170533
0.00678956
0.00163901
0.00318833
0.00871309
0.00635792
0.0091793
0.00197287
0.00701594
0.00204156
0.00325402
0.00921929
0.00698228
0.00936776
0.00202427
0.00461264
0.0010636
0.00141554
0.00341916
0.00361854
0.00433272
0.00158916
0.00640708
0.00200394
0.00278669
0.00863845
0.00668987
0.00819738
0.00188955