/*--------------------------------*- C++ -*----------------------------------*\
| =========                 |                                                 |
| \\      /  F ield         | OpenFOAM: The Open Source CFD Toolbox           |
|  \\    /   O peration     | Version:  2.4.0                                 |
|   \\  /    A nd           | Web:      www.OpenFOAM.org                      |
|    \\/     M anipulation  |                                                 |
\*---------------------------------------------------------------------------*/
FoamFile
{
    version     2.0;
    format      ascii;
    class       surfaceScalarField;
    location    "70";
    object      phi;
}
// * * * * * * * * * * * * * * * * * * * * * * * * * * * * * * * * * * * * * //

dimensions      [0 3 -1 0 0 0 0];

internalField   nonuniform List<scalar> 
127924
(
8.6219e-05
-1.7401e-05
-6.88071e-05
0.000538441
-0.000612627
6.1648e-05
1.25437e-05
0.000821978
-0.000821186
4.18269e-05
-4.26206e-05
0.000717663
-0.000693672
3.45439e-05
-5.85374e-05
0.000511699
-0.00048495
2.89765e-05
-5.57333e-05
0.000312489
-0.000291739
2.40498e-05
-4.47937e-05
0.000159671
-0.000143134
1.75189e-05
-3.40408e-05
3.5504e-05
-2.08963e-05
1.14655e-05
-2.60597e-05
-0.000517501
5.89077e-05
0.000607881
-0.000149284
-0.000309022
0.000737429
-0.000793173
0.000333468
3.12999e-05
0.000139706
0.000882194
-0.000866104
-0.000168534
1.2739e-05
0.000262812
0.000701933
-0.000674776
-0.000304034
1.40642e-05
0.000235587
0.000500625
-0.000475534
-0.000273559
1.28782e-05
0.000174584
0.000321934
-0.000300945
-0.000205285
9.70752e-06
0.00011829
0.000176379
-0.000161036
-0.000140973
7.3349e-06
8.31024e-05
7.42133e-05
-6.44698e-05
-9.83957e-05
5.54271e-06
-0.0010962
0.000115179
0.00114451
-0.000163495
-0.000444206
0.00101596
-0.00103534
0.000454735
8.84879e-06
0.000334718
0.000679549
-0.000619867
-0.000317716
-7.6686e-05
0.000499534
0.000293999
-0.000266083
-0.000497114
-3.03369e-05
0.000450371
0.000144715
-0.000134038
-0.000456604
-4.44528e-06
0.000352536
8.41253e-05
-7.87455e-05
-0.000360329
2.41105e-06
0.000258445
4.78792e-05
-4.33251e-05
-0.000266482
3.48015e-06
0.000187512
1.82765e-05
-1.66847e-05
-0.000194595
5.48791e-06
-0.00140825
0.000157497
0.00141755
-0.000166798
-0.000378498
0.00128904
-0.0012639
0.000352104
1.25932e-06
0.000265321
0.000521023
-0.000412229
-0.0002421
-0.000132016
0.000456457
-9.88317e-05
0.000138662
-0.000426369
-6.99185e-05
0.000428267
-0.000244549
0.000243234
-0.000404089
-2.28633e-05
0.000346252
-0.000183761
0.000172592
-0.000330144
-4.93955e-06
0.000269825
-9.67607e-05
8.78933e-05
-0.00026021
-7.4443e-07
0.000204661
-3.37253e-05
2.60747e-05
-0.000198842
1.83456e-06
-0.00122097
0.000175615
0.00115721
-0.000111859
-0.000197267
0.00141059
-0.0013686
0.000176391
-2.11161e-05
5.12384e-05
0.000443918
-0.000309133
-1.95091e-05
-0.000166515
0.000154788
-0.000302351
0.000351825
-0.000107579
-9.66834e-05
0.00017946
-0.000469884
0.000462888
-0.000139175
-3.3288e-05
0.000175154
-0.000342218
0.000321758
-0.000147046
-7.64679e-06
0.000160136
-0.000184344
0.000167695
-0.000141513
-1.96603e-06
0.000135116
-6.62e-05
5.30641e-05
-0.000122977
1.003e-06
0.000861269
0.000220986
-0.000993452
-8.88047e-05
-6.24457e-05
0.00142297
-0.0013916
5.45679e-05
-2.349e-05
-0.000194211
0.000486337
-0.000354271
0.000225242
-0.000163098
-0.000206133
-0.000248064
0.000297817
0.000247307
-9.09272e-05
-0.00013693
-0.000420926
0.000414353
0.00017074
-2.72369e-05
-5.28284e-05
-0.000307404
0.000289131
7.66442e-05
-5.54109e-06
8.69054e-06
-0.000164033
0.000149215
6.1707e-06
-3.8309e-08
3.66691e-05
-5.85801e-05
4.68218e-05
-2.63038e-05
1.3984e-06
0.00125845
0.000158461
-0.00124477
-0.000172143
1.23156e-05
0.00140275
-0.00138708
-2.95693e-05
1.57995e-06
-0.000419767
0.000683181
-0.000577488
0.000424678
-0.000110606
-0.000468123
6.35445e-05
-2.35624e-05
0.000472659
-4.45191e-05
-0.000340422
-0.000113997
0.000117999
0.000345057
-8.63749e-06
-0.00019233
-0.000104349
9.88918e-05
0.000195639
2.15008e-06
-8.44677e-05
-5.67251e-05
5.1573e-05
8.70851e-05
2.53774e-06
-2.78088e-05
-1.70492e-05
1.24155e-05
3.03324e-05
2.11316e-06
0.000846931
8.71575e-05
-0.000751648
-0.000182441
3.10698e-05
0.00133007
-0.00135436
-1.85739e-05
1.17955e-05
-0.000415682
0.00100572
-0.00093541
0.000384322
-3.89549e-05
-0.000385605
0.000525858
-0.000483473
0.00034463
-1.41173e-06
-0.000250562
0.00026533
-0.000242708
0.000217712
1.02258e-05
-0.000133171
0.000126009
-0.000113885
0.000112437
8.61135e-06
-5.61695e-05
5.35903e-05
-4.76227e-05
4.58076e-05
4.3952e-06
-2.24635e-05
2.16769e-05
-1.96838e-05
1.8801e-05
1.67606e-06
-0.00018378
4.24365e-05
-6.9511e-05
0.00021085
-8.75763e-05
0.000732643
-0.000798867
7.1415e-05
8.23834e-05
-5.12738e-05
0.00100856
-0.00100083
-1.23955e-05
5.59366e-05
-1.50738e-05
0.000865
-0.000833674
-3.8661e-05
2.24084e-05
1.0527e-05
0.000613627
-0.000581107
-3.98699e-05
-3.17451e-06
1.97472e-05
0.000375841
-0.000350109
-3.21657e-05
-1.33139e-05
1.47057e-05
0.000192166
-0.000175519
-2.11075e-05
-1.02486e-05
7.93037e-06
5.78507e-05
-4.11807e-05
-2.03795e-05
-4.22603e-06
-0.000184757
-0.000737887
-0.000155391
0.000877453
0.000200581
-0.0392744
-0.001718
-9.98667e-06
0.000405588
0.000905969
0.00214507
0.00291836
-0.00611531
-0.00331454
-0.00663315
-0.00382594
0.0120856
0.0163931
0.0121505
0.013887
-0.0339096
-0.0171567
-5.24914e-06
0.000968681
0.000559485
0.0025639
0.0017136
0.001165
0.00215606
0.000854713
0.00181563
-0.0276516
-0.0216422
5.56629e-07
0.000262186
-0.00014229
0.000991746
0.000303738
0.00360502
0.00359339
0.00338538
0.00338447
-0.0196848
-0.022043
5.79542e-06
-0.00014574
-0.000350094
0.000117213
-0.000209058
0.00387508
0.00359255
0.0037307
0.00345964
-0.0116428
-0.0192457
8.54879e-06
-0.000261009
-0.000347567
-0.000175548
-0.000308382
0.00328643
0.00295412
0.00319167
0.00285527
-0.00146278
-0.0143775
7.25205e-06
-0.00033555
-0.000372015
-0.000275953
-0.000370776
0.00236698
0.00214309
0.00227553
0.00204826
-0.000948899
-0.00144428
-0.000896421
-0.000389724
0.00179219
-0.00229758
0.000239587
-0.000184116
-0.000218019
-0.000185613
-0.000219569
-0.00296814
-0.00322067
-0.00249268
0.000554492
0.000404676
0.0482969
-0.00796855
-1.05102e-05
0.0072723
0.00823927
0.00872937
0.0104579
0.00277912
-0.0168477
-0.0152304
-0.0474358
0.0201559
-0.0132567
-8.07789e-06
0.0062329
0.00477162
0.00745487
0.00578968
0.00674698
-0.0181122
-3.82851e-06
0.00266571
0.00165928
0.00336251
0.00219514
0.00168472
-0.0198242
1.97181e-06
0.000803713
0.000364229
0.00111298
0.000560386
0.00061251
-0.0184461
7.53295e-06
0.000104415
-5.67911e-05
0.000205483
1.1773e-05
0.000156812
-0.0144462
8.67226e-06
-0.000131121
-0.000219012
-8.96571e-05
-0.000139717
0.00042586
0.000211561
0.000457706
-0.000305355
0.00274842
-0.00270474
0.000188469
7.06834e-05
4.41385e-05
5.9841e-05
5.53031e-05
-0.00412473
-0.000109127
-0.0020795
9.1105e-05
0.000583246
0.118975
0.00461428
-1.20095e-05
0.0111964
0.0129941
0.0115278
0.013785
-0.0281067
-0.0288733
-0.0614095
-0.0626592
0.0686767
-0.000276289
-8.54065e-06
0.00997334
0.00810056
0.0105103
0.00874174
0.0382914
-0.0054394
-4.48332e-06
0.00498594
0.0035016
0.00538799
0.00384139
0.0210796
-0.00888469
3.27704e-07
0.00184757
0.00116247
0.0019831
0.00127887
0.01108
-0.0102057
6.49999e-06
0.000533498
0.000313633
0.000569198
0.000336388
0.00125027
-0.00910582
9.07736e-06
0.000126354
6.97693e-05
0.00014253
8.40933e-05
0.00142209
0.00123303
0.00140233
1.23652e-05
0.00261504
-0.00215675
-5.75002e-06
0.000209245
0.0001838
0.000203899
0.000188402
-0.00424193
-4.66597e-05
-0.00213957
3.87873e-05
0.00063884
0.131619
0.00491256
-1.52664e-05
0.0120089
0.0144102
0.0120064
0.0145035
-0.0291178
-0.0289594
-0.0634071
-0.0633465
0.0813863
0.00916124
-8.33833e-06
0.0111364
0.00924969
0.0111841
0.00923292
0.0478211
0.00815085
-4.11201e-06
0.00582898
0.00419204
0.0057991
0.00415888
0.0274242
0.00416705
1.21618e-07
0.00224141
0.00147402
0.00218084
0.00144885
0.0147138
0.000269656
6.4005e-06
0.00069778
0.00045776
0.000652028
0.000421164
0.0017709
-0.00212275
9.66597e-06
0.000221021
0.000187067
0.000206278
0.000175206
0.00173276
0.00173693
0.00169089
0.000108503
0.00171648
-0.00114046
-7.30541e-05
0.000295869
0.000283634
0.000292149
0.000287767
-0.00428252
1.6863e-05
-0.00215175
-1.64454e-05
0.000648297
0.112373
0.0204057
-9.08444e-06
0.011766
0.0139563
0.0114513
0.0132931
-0.0281405
-0.027268
-0.0621195
-0.0607958
0.0614779
0.0228751
-7.19155e-06
0.0105403
0.00866203
0.0100321
0.00795398
0.0333786
0.0192566
-4.57396e-06
0.00527036
0.00370565
0.00475769
0.00326453
0.0185439
0.0132252
7.17031e-07
0.00188621
0.00121862
0.00165035
0.00102076
0.00996689
0.00731186
7.43046e-06
0.000532057
0.000324957
0.000419322
0.000251018
0.00132103
0.00262699
1.02441e-05
0.000140408
0.000124753
9.09404e-05
8.33272e-05
0.0010787
0.00129972
0.00106801
5.25915e-05
0.00058467
-0.000188122
-4.50111e-05
0.00022083
0.000237462
0.000217042
0.00024155
-0.00419132
8.21438e-05
-0.00210077
-7.11246e-05
0.000597252
0.0343859
0.00409716
-7.33857e-06
0.00886532
0.0104848
0.00736406
0.00836476
-0.0152776
0.00408343
-0.0462511
-0.0137388
0.00666781
0.00449888
0.00686845
0.00773806
0.00698358
-6.47344e-06
0.00745782
0.00556832
0.00619813
0.00450309
0.00619531
0.00670426
0.00591884
0.000153567
0.00508262
-1.6527e-06
0.00309679
0.00189968
0.00234473
0.00134798
0.00427836
0.00478637
0.00400617
-0.000381922
0.00330148
4.88121e-06
0.000888477
0.000398928
0.000540786
0.000200031
0.00273775
0.00310522
0.00258311
0.000403121
0.00188056
1.03694e-05
9.51772e-05
-2.334e-05
-2.3132e-05
-8.83796e-05
0.00149027
0.00177501
0.00141026
0.000311241
0.000783302
1.06662e-05
-8.84816e-05
-7.9966e-05
-0.00012438
-0.000114187
8.7439e-05
0.000337365
0.000123134
0.000555959
0.000724288
0.000503688
-8.86854e-05
-0.000204045
0.000278242
4.19387e-05
6.15719e-05
7.97808e-05
5.66448e-05
8.57668e-05
-0.00317651
0.00313166
-0.00417857
-0.00474419
0.00174514
0.00147635
0.00431487
0.00143124
0.0014766
0.0192103
-0.0144663
-0.00202456
0.000187218
-0.000224947
0.000228672
-0.000289915
0.00279351
0.012475
-0.010683
-0.00193961
0.0010253
0.00114101
0.00106367
0.00110769
0.000816162
0.0088007
-0.00700338
-0.000642437
0.000716456
0.000835755
0.000765249
0.000794108
-1.61501e-05
0.00525609
-0.00384066
-7.47872e-05
0.000458207
0.00053097
0.000487688
0.000500132
-0.000168305
0.00257116
-0.00171361
5.90076e-05
0.000261767
0.000305613
0.000280144
0.000284773
-0.000138295
0.000986897
-0.000588764
6.7519e-05
9.82944e-05
0.000130426
0.00011015
0.000117047
-8.34067e-05
-0.000318563
0.000272476
5.72927e-05
-3.25104e-05
-2.45697e-05
-3.78797e-05
-1.76765e-05
4.24341e-05
5.07151e-05
4.7834e-05
4.38363e-05
1.53676e-06
0.000124957
-1.44224e-05
-0.00011208
-8.42487e-08
0.00063721
-0.000727223
0.000102814
-1.27185e-05
-8.10474e-08
0.0010062
-0.0010003
9.07224e-06
-1.48922e-05
-1.54992e-07
0.000874105
-0.000842331
-2.44313e-05
-7.18798e-06
-1.73848e-07
0.000620879
-0.000587522
-3.15688e-05
-1.61491e-06
-1.28024e-07
0.000377889
-0.00035162
-2.69807e-05
8.37653e-07
-3.75083e-08
0.000190911
-0.000174762
-1.7056e-05
9.39326e-07
7.1438e-08
5.29481e-05
-3.64619e-05
-1.60518e-05
-5.05943e-07
8.40186e-07
-0.000786407
-0.000110477
0.000957337
-6.12948e-05
-0.0392838
-0.00172126
0.00040049
-0.00663247
-0.00382577
-0.00611488
-0.00331489
0.0121524
0.0138886
0.0120889
0.0163955
0.000902254
0.00214048
0.00291438
-0.0339195
-0.0171546
0.000966665
0.000854335
0.00181499
0.00116343
0.00215455
0.000558129
0.00256149
0.00171144
-0.0276607
-0.0216382
0.000262768
0.00338448
0.00338351
0.0036032
0.00359153
-0.000140992
0.000991381
0.000304008
-0.0196916
-0.0220378
-0.000142965
0.00372959
0.00345853
0.00387307
0.00359064
-0.000347188
0.000119235
-0.000206463
-0.0116474
-0.0192401
-0.000257229
0.00319067
0.00285426
0.00328449
0.00295267
-0.000344024
-0.00017183
-0.000304675
-0.00144501
-0.014374
-0.000332589
0.002275
0.00204761
0.00236564
0.00214272
-0.000896867
-0.00146366
-0.000949694
-0.0003692
-0.000272323
-0.000367934
-1.0239e-06
0.00162564
-0.00202896
-0.000237809
-0.000182555
-0.000219362
-0.000180587
-0.000220388
4.00899e-08
-0.0043236
-0.00216267
0.000652537
-1.85123e-06
0.0482836
-0.00797109
0.00726779
-0.0152291
-0.0474332
0.00278034
-0.0168444
0.0082351
0.00872528
0.0104538
0.0201397
-0.013255
0.00622941
0.00476858
0.00745149
0.00578678
0.00673207
-0.01811
0.00266379
0.00165799
0.00336057
0.00219332
0.00167418
-0.0198218
0.000804235
0.000365532
0.00111287
0.00056115
0.000606746
-0.0184428
0.000107452
-5.3222e-05
0.000208299
1.51213e-05
0.00021135
-0.0144443
-0.000127618
0.000457455
0.000156583
0.000426044
-0.000215746
-8.57219e-05
-0.000136702
-1.21416e-06
0.00241507
-0.00231926
-0.000186201
8.08621e-05
7.09597e-05
8.39283e-05
6.71692e-05
2.81992e-09
-2.89981e-06
0.00143925
2.35388e-06
1.60701e-07
0.118954
0.00461382
0.0111914
-0.0614065
-0.0626554
-0.0281031
-0.0288678
0.0129894
0.0115212
0.0137798
0.0686545
-0.000275852
0.00996937
0.00809723
0.0105067
0.00873843
0.0382718
-0.00543993
0.00498373
0.00349941
0.00538593
0.00383905
0.0210659
-0.00888552
0.00184677
0.00116256
0.00198203
0.00127868
0.011073
-0.0102059
0.000535627
0.000316563
0.000571092
0.000339146
0.00123289
-0.0091062
0.000129626
0.00140206
0.00125058
0.00142258
7.28762e-05
0.000146349
8.70198e-05
-1.31858e-06
0.00223364
-0.00182449
8.10215e-06
0.00021391
0.000194594
0.000215323
0.000193124
7.61512e-09
-4.56357e-07
0.00144638
4.18519e-07
-6.11256e-08
0.131595
0.00491499
0.0119988
-0.0634026
-0.0633417
-0.0291126
-0.028952
0.014404
0.0119972
0.0144976
0.0813622
0.00915996
0.0111324
0.00924653
0.01118
0.00922958
0.0477999
0.00814793
0.00582691
0.00418983
0.00579691
0.00415666
0.0274092
0.00416319
0.00224036
0.00147375
0.00217957
0.00144854
0.0147061
0.000265695
0.000699578
0.000460509
0.000653739
0.00042408
0.00173692
-0.00212614
0.000224674
0.00169068
0.00177111
0.00173323
0.000190228
0.000210258
0.000178678
-1.45764e-06
0.00147198
-0.000991621
7.5658e-05
0.000298869
0.000292351
0.00029999
0.000291145
7.53327e-09
2.89619e-07
0.00144627
-3.03538e-07
-5.23535e-08
0.112351
0.0204069
0.0117625
-0.0621155
-0.0607919
-0.0281351
-0.0272639
0.0139524
0.0114494
0.0132899
0.0614567
0.0228723
0.0105367
0.00865875
0.0100288
0.00795067
0.03336
0.0192517
0.00526776
0.00370325
0.00475513
0.00326214
0.0185305
0.0132189
0.00188515
0.00121861
0.00164975
0.00102103
0.00995964
0.00730526
0.000534309
0.000328259
0.000421888
0.000254323
0.00129975
0.00262122
0.000144452
0.00106776
0.00132122
0.00107905
0.000128319
9.49918e-05
8.70032e-05
-1.53601e-06
0.000529436
-0.000214526
4.78916e-05
0.000223271
0.000245972
0.000224547
0.000244687
1.96757e-09
2.3971e-06
0.00143515
-2.01796e-06
1.76054e-07
0.0343737
0.00450024
0.00886359
-0.0462496
-0.013738
-0.0152769
0.00408367
0.00686901
0.00409863
0.0066681
0.0104822
0.00736258
0.00836239
0.00772308
0.00670397
0.00745508
0.00591837
0.00698282
0.00619381
0.00556544
0.00619593
0.00450101
0.000139414
0.00478555
0.00309503
0.00400561
0.00508076
0.00427666
0.00189844
0.00234388
0.00134785
-0.000392445
0.00310417
0.000889244
0.00258186
0.00329925
0.00273525
0.0004007
0.000542602
0.000202668
0.00039688
0.00177374
9.88728e-05
0.00140906
0.00187827
0.00148796
-1.92531e-05
-1.86018e-05
-8.37328e-05
0.000337233
0.000723169
-8.4116e-05
0.000122759
0.000311173
8.68944e-05
0.000502775
0.000781239
0.000554067
-7.63469e-05
-0.00011977
-0.000110287
-1.66798e-06
-0.000130609
0.000185728
-3.88083e-05
6.7741e-05
9.34814e-05
6.97269e-05
9.16299e-05
5.51417e-07
0.0043125
-0.00538917
-0.00598004
-0.000180105
0.00146181
0.0043111
0.00146334
8.54728e-07
0.0156976
-0.0123815
0.00202261
6.50282e-05
-0.000486332
-1.55987e-05
-0.000402495
3.72977e-07
0.0111522
-0.00993869
0.0019388
0.000880843
0.000900186
0.000826451
0.000943798
-1.46325e-06
0.00845623
-0.00684078
0.000645091
0.000619158
0.000645357
0.000588612
0.000673352
-3.01084e-06
0.00522828
-0.00386001
8.03688e-05
0.000406535
0.000422739
0.000392116
0.000437158
-3.72196e-06
0.00261256
-0.00174905
-5.22373e-05
0.000235571
0.00024721
0.000228339
0.000255072
-3.45383e-06
0.0010025
-0.000583352
-6.13049e-05
8.50167e-05
9.90756e-05
8.20309e-05
0.000102648
-2.30873e-06
-0.000241835
0.000238558
-5.31356e-05
-2.7172e-05
-8.96068e-06
-2.57054e-05
-1.11501e-05
3.3565e-05
3.21354e-05
3.2065e-05
3.39424e-05
0.000179786
2.8796e-05
-6.89638e-05
-0.00013962
8.81105e-05
0.000744107
-0.000809317
6.23052e-05
-8.52088e-05
5.13355e-05
0.00101032
-0.00100288
-1.97373e-05
-3.90425e-05
1.4972e-05
0.000864913
-0.000833761
-4.49607e-05
-1.16353e-06
-1.06309e-05
0.000613221
-0.000580911
-4.45944e-05
2.29175e-05
-1.98302e-05
0.00037621
-0.000350557
-3.55259e-05
2.9704e-05
-1.47048e-05
0.000193206
-0.00017626
-2.46456e-05
2.24101e-05
-7.81008e-06
5.85961e-05
-4.21885e-05
-2.21807e-05
1.35882e-05
0.000184283
-0.000721258
-0.000164258
0.000852528
-0.000151298
-0.00605964
0.0140507
-0.0150873
0.00810259
-5.32858e-05
-0.000233638
-0.000170461
-0.000148444
0.00162896
0.0147222
-0.0133936
-0.00214985
6.74416e-05
6.37105e-06
-2.82331e-05
0.000113383
0.00421189
0.0118382
-0.0101228
-0.00541304
-6.59032e-05
-6.29596e-05
-0.000108277
-1.43747e-05
0.0043613
0.00852964
-0.00692953
-0.00568349
-0.000110635
-0.000100797
-0.000124766
-8.47057e-05
0.00365697
0.00554966
-0.00424929
-0.00484403
-9.58774e-05
-8.90392e-05
-0.000100353
-8.53068e-05
0.0027445
0.00315174
-0.00220426
-0.00371467
-8.0081e-05
-7.60929e-05
-7.89583e-05
-7.48269e-05
0.000388188
0.00201352
0.00144608
-0.00272371
-0.00018073
-0.000207748
-0.000177322
-0.000208957
-9.49301e-05
-7.94396e-05
-9.0673e-05
-8.43855e-05
0.00296851
-0.00407913
-0.00407797
0.00276207
-0.00411059
0.00120146
0.00418993
0.00114572
-0.00785624
0.0158173
-0.00909055
0.00611189
0.000794324
0.000341475
0.00068086
0.000468687
0.00317207
0.00563674
-0.0040322
-0.0028189
0.00104619
0.00107861
0.000954624
0.00119226
0.00638205
0.00273913
-0.00214679
-0.00605246
0.000406054
0.000461425
0.000362275
0.000512095
0.00658868
0.00158808
-0.00124127
-0.00651384
8.19822e-05
0.000107294
6.76179e-05
0.000125677
0.00564009
0.000931902
-0.000667237
-0.00573229
-2.23293e-05
-1.07293e-05
-2.57636e-05
-6.22396e-06
0.00437386
0.000441698
-0.000226347
-0.00454479
-4.52004e-05
-4.06408e-05
-4.70203e-05
-3.92437e-05
0.000303434
0.00324423
5.1074e-05
-0.00337914
1.25188e-05
1.4727e-05
3.12075e-05
-5.91111e-06
-6.57479e-05
-6.74232e-05
-7.39146e-05
-6.51262e-05
0.00412486
-0.00117274
-0.00514574
0.00108586
-0.00593792
0.00143114
0.00416614
0.0014484
-0.00521609
0.00761696
-4.1884e-05
0.00477364
0.00129451
0.000719315
0.00120729
0.000837602
0.00229255
-0.00401725
0.0054629
-0.000903791
0.00173537
0.00183092
0.00164823
0.00192043
0.00527685
-0.00631662
0.00589714
-0.00353554
0.000874111
0.000957772
0.000808066
0.00102194
0.0059053
-0.00543961
0.00455101
-0.00440483
0.00028531
0.000336911
0.000266651
0.000346031
0.0053376
-0.00374746
0.00289547
-0.00423442
6.26329e-05
8.11423e-05
5.83826e-05
8.2283e-05
0.00434188
-0.00218826
0.00156167
-0.00362292
5.81168e-06
1.21929e-05
6.79405e-06
1.24652e-05
-1.41938e-05
0.00324069
-0.00108333
-0.00277186
0.000163792
0.000164726
0.000180891
0.000149101
-4.28074e-06
-9.3731e-06
-6.03947e-06
-1.01466e-05
0.00424206
-0.000535074
-0.00517641
0.000464618
-0.00632857
0.00153124
0.00426145
0.00154067
-0.00340188
0.00577147
0.00295088
0.0019271
0.00144771
0.00092806
0.00144274
0.000932735
-0.000211599
-0.00786782
0.00952408
0.00132617
0.00198992
0.00219159
0.00197955
0.00220046
0.00164114
-0.0103723
0.00958766
0.000467439
0.00104239
0.00120973
0.00103839
0.00121249
0.00256424
-0.00871501
0.00727573
-0.000477311
0.000360007
0.000439664
0.000358319
0.00043474
0.00282776
-0.0059796
0.00461531
-0.00120456
9.94422e-05
0.000123404
9.66158e-05
0.000121227
0.00267517
-0.00347054
0.00245562
-0.00155482
2.68429e-05
3.27153e-05
2.77424e-05
3.19878e-05
-0.000110307
0.00215447
-0.0016686
-0.0014251
0.000241267
0.000261382
0.000266478
0.00023691
1.40048e-05
8.21484e-06
1.47331e-05
6.58697e-06
0.00428247
0.000256354
-0.00520375
-0.000345169
-0.00633605
0.00153397
0.00427495
0.00153723
-0.000652141
0.00655248
0.00134945
-0.000261103
0.00143712
0.000947395
0.00146315
0.000926189
-0.00249288
-0.00556275
0.00692947
0.0037179
0.00185807
0.00211356
0.00189816
0.00207513
-0.00251228
-0.00772593
0.00716976
0.00424582
0.000920963
0.00112541
0.000957585
0.00108644
-0.00152359
-0.00661064
0.00554775
0.00316101
0.000288224
0.000368494
0.000301086
0.000352816
-0.000354576
-0.00463702
0.00361009
0.00161257
6.44728e-05
8.88533e-05
6.8386e-05
8.15434e-05
0.000468822
-0.00274115
0.00195029
0.000408054
1.28223e-05
1.6844e-05
1.36802e-05
1.51247e-05
-5.48169e-05
0.000713636
-0.00133349
-0.0001436
0.00018165
0.000218416
0.000201621
0.000195234
8.24216e-06
2.76789e-06
9.10105e-06
1.26791e-06
0.00419131
0.000878467
-0.00521447
-0.000942837
-0.00594784
0.00143911
0.0041623
0.00143395
-5.36191e-05
0.0131242
-0.00755131
0.000213913
0.000953079
0.000623807
0.00102172
0.00053183
-0.00526101
0.00436066
-0.002823
0.00586192
0.00118175
0.00148439
0.00129261
0.00135775
-0.00567699
0.00137838
-0.000629581
0.00591369
0.000433066
0.000626511
0.000507001
0.000542949
-0.00427161
-7.20341e-05
0.000431088
0.00434857
7.75447e-05
0.000152841
0.000111231
0.000111631
-0.00244277
-0.00065623
0.000705743
0.00256691
-2.90021e-05
-6.90077e-06
-1.50637e-05
-2.38023e-05
-0.00101248
-0.000657582
0.000529645
0.00116922
-3.02332e-05
-2.57222e-05
-2.4236e-05
-3.27133e-05
8.61503e-05
-0.000282164
-0.000380294
0.000434443
3.83562e-05
6.93832e-05
4.78567e-05
5.89412e-05
-1.78897e-05
-1.90735e-05
-1.39504e-05
-2.17461e-05
0.00317683
0.00366751
-0.00230526
-0.00245799
-0.00208109
-0.00147543
0.000283992
0.0208353
-0.0194904
9.02522e-05
-0.000282157
9.47382e-05
-0.000272291
7.45576e-05
4.2795e-05
0.000247968
-0.000149403
-0.00279331
-0.0059453
0.0167034
-0.0136497
0.00100433
0.00103474
0.000979945
0.00102689
0.000288794
0.000552109
0.000419641
0.000378489
-0.000818744
-0.00544067
0.0105959
-0.00801123
0.000849372
0.000886222
0.000807047
0.000912259
3.91708e-06
0.000123595
4.42065e-05
4.80815e-05
1.11293e-05
-0.00380321
0.00579893
-0.00406701
0.000571323
0.000593203
0.000538396
0.000619428
-7.30681e-05
-4.93518e-05
-7.293e-05
-6.68052e-05
0.000162272
-0.00222184
0.00270405
-0.00173662
0.000321566
0.000345778
0.000311507
0.000356284
-5.48926e-05
-6.44404e-05
-6.55025e-05
-5.81542e-05
0.000132923
-0.00102241
0.0010419
-0.000616156
0.000139103
0.000157985
0.00013456
0.000160956
-2.71724e-05
-3.74202e-05
-3.50932e-05
-2.9165e-05
8.01583e-05
-0.00042035
0.000352405
-6.0568e-05
-4.12247e-05
-5.15582e-05
-5.15965e-05
6.60727e-05
6.47033e-05
6.08501e-05
6.91602e-05
-1.46513e-05
-1.95763e-05
-1.87196e-05
-1.50552e-05
0.000445105
6.74384e-05
2.5901e-05
-0.000421094
5.14018e-05
-0.00014781
-0.000727622
0.000381677
-0.000340879
0.000654105
3.27218e-05
-0.000146671
3.13867e-05
-6.84951e-05
-0.000743615
9.16634e-05
-9.05617e-05
0.000660965
8.15463e-05
0.000721224
0.00017757
-0.000143828
-0.000595
-0.000159969
-0.0138191
0.0115872
0.00151988
-0.00049707
-0.000345278
-0.000432083
-0.000447747
-0.00168816
-0.0014503
-0.00143003
-0.00172496
0.00220051
0.00218799
0.00221535
0.00212386
0.00081657
4.32319e-05
-3.78234e-05
-0.000279216
-0.000785794
2.83681e-05
-0.000905219
-0.000105571
7.83456e-05
0.00091056
2.18873e-05
-8.44448e-05
-0.000808992
6.22438e-05
-0.00101027
5.67405e-05
-4.48058e-05
0.00100566
-7.32948e-06
-0.0163027
0.00605863
0.000608112
-0.000276192
-0.000248506
-0.000326217
-0.000210691
-0.000658823
-0.000894276
-0.000882338
-0.000686028
-0.0170408
0.00153052
0.00062976
-0.000241811
-0.000173797
-0.000225403
-0.00017442
-0.000210956
-9.96719e-05
-5.78155e-05
-0.000238403
0.000737344
3.6205e-05
-5.58871e-05
0.000108377
-0.000893328
1.94381e-05
-0.00074328
-0.000259613
0.000214086
0.000768243
2.05625e-05
-3.89315e-05
-0.00100281
-1.97973e-05
-0.00086488
1.94254e-05
-5.57061e-06
0.000891795
-4.07706e-05
-0.0162158
-0.00163154
0.000291485
-0.000186693
-0.000124111
-0.000177438
-0.000158961
0.000347723
0.000242458
0.00026641
0.000305672
-0.0147059
-0.00339298
0.000402273
-0.000157759
-0.00017241
-0.000181542
-0.000131268
0.000538482
0.000518522
0.00056135
0.000505447
0.000536696
3.02465e-05
-5.52484e-05
0.000217191
-0.000715984
1.83242e-05
-0.000534107
-0.000242374
0.000200211
0.000559108
1.71598e-05
-1.22533e-06
-0.000833664
-4.50646e-05
-0.000613133
-8.08783e-06
2.07534e-05
0.000644822
-4.43513e-05
-0.0128025
-0.00421489
0.000364653
-0.000165851
-0.000135052
-0.000140814
-0.000172301
0.000646053
0.000636426
0.000663148
0.000615272
-0.0108383
-0.00443562
0.000407594
-0.000129209
-0.000162573
-0.000147901
-0.000135844
0.000685367
0.000632314
0.000657094
0.000664537
0.00033453
2.28557e-05
-4.49e-05
0.000194492
-0.000507504
1.44899e-05
-0.000342477
-0.000182522
0.000148982
0.00036395
1.20626e-05
2.28615e-05
-0.000580782
-4.46828e-05
-0.000376099
-1.9297e-05
2.94531e-05
0.000403084
-3.71401e-05
-0.00888527
-0.00436459
0.000326395
-0.000116712
-0.000113478
-0.000100487
-0.000135252
0.000627913
0.00064929
0.000663843
0.000610015
-0.00708137
-0.00405378
0.000304985
-8.22559e-05
-0.000114725
-9.37947e-05
-9.89348e-05
0.000607253
0.000558975
0.000572281
0.000596073
0.000176434
1.81548e-05
-3.49122e-05
0.000142127
-0.000320001
9.97903e-06
-0.000187016
-0.000124732
0.000100493
0.000203282
7.96902e-06
2.96588e-05
-0.000350424
-3.55881e-05
-0.000193058
-1.5778e-05
2.38033e-05
0.000212533
-2.75047e-05
-0.00545305
-0.00365996
0.000249704
-6.9362e-05
-7.84756e-05
-6.06051e-05
-8.97454e-05
0.000508328
0.000532097
0.000541086
0.000498586
-0.00401758
-0.00321628
0.00021717
-4.66155e-05
-7.38136e-05
-5.38849e-05
-6.49814e-05
0.000469854
0.00043127
0.000439572
0.000462209
5.04975e-05
1.17754e-05
-2.67567e-05
9.53311e-05
-0.00017072
6.66278e-06
-7.84684e-05
-8.65944e-05
7.10153e-05
8.92714e-05
4.76893e-06
2.24394e-05
-0.000176123
-2.46727e-05
-5.85248e-05
-8.95215e-06
1.50758e-05
7.57095e-05
-2.33168e-05
-0.0028282
-0.00274627
0.000231431
-4.5241e-05
-5.69551e-05
-4.0462e-05
-6.22489e-05
0.000377537
0.00038711
0.000396876
0.000368802
-0.00183992
-0.00237629
0.000212857
-3.50268e-05
-5.47339e-05
-3.88094e-05
-4.95501e-05
0.000347902
0.000329989
0.000334346
0.00034097
-1.34978e-05
1.37386e-05
-2.30337e-07
6.82221e-05
-6.79618e-05
4.37207e-06
-3.35419e-05
7.53621e-06
1.00285e-05
1.59674e-05
1.3709e-05
-4.21463e-05
-2.21616e-05
-4.68664e-06
7.41361e-06
-2.43071e-05
2.15876e-05
-0.0020127
0.00024194
-5.06651e-05
-5.52531e-05
-4.07916e-05
-6.72281e-05
0.000279846
0.0002954
0.000299121
0.000276524
-0.000253501
-0.0002499
-0.000249441
-0.00025332
-6.80841e-05
2.73953e-05
-2.9621e-05
5.39858e-05
1.63234e-05
0.000663183
0.00041595
3.99745e-05
-0.00104268
0.000105282
-0.000158798
-0.000961218
0.000599732
-0.000577458
0.000886788
5.21557e-05
-0.000152453
-0.000163679
0.000852599
0.0158441
-0.0140449
0.00176798
-0.000600104
-0.000483345
-0.00056667
-0.000434472
0.00259779
0.00237734
0.00238599
0.00274354
0.00407967
0.00283957
-0.00179463
-0.00292217
-0.00220244
-0.0155119
0.0170815
0.000804123
-0.000791093
-0.000515356
-0.000590143
-0.000887566
0.0032128
0.00527953
0.00399064
0.00377155
0.000891858
-0.000130508
1.52751e-05
-0.000431978
-0.000989745
1.62995e-05
-0.00070903
-0.000284757
0.000275804
0.000768992
-5.10089e-05
-0.0150829
0.00810344
-5.23896e-05
-0.000232248
-0.000169428
-0.000147198
0.00195863
-0.0147176
9.04262e-05
-3.50905e-05
-3.21757e-05
8.93805e-05
-0.0136182
0.00785799
0.000109734
0.000109352
-4.45457e-05
0.000322236
-0.0116468
0.00079179
0.000411326
0.000637611
0.000411651
0.000653268
0.000727481
-0.000300446
1.52847e-05
0.000325405
-0.000655249
-4.4468e-05
-0.000350313
-0.000496775
0.000484511
0.00038564
-2.30639e-05
-0.0133893
-0.00215134
6.77585e-05
6.68327e-06
-2.79923e-05
0.000113755
-0.00436447
-0.0118334
5.92847e-05
-6.73302e-05
-1.78911e-05
9.66704e-07
-0.00982882
-0.00317339
0.000328613
0.000574917
0.000375536
0.000488882
-0.00823287
-0.00545842
0.000269834
0.000323831
0.000207082
0.000410844
0.000524193
-0.000281103
1.51607e-05
0.000486966
-0.000322645
-1.50996e-05
-0.000196498
-0.00046134
0.000447678
0.000209875
2.8304e-07
-0.010118
-0.00541559
-6.61306e-05
-6.32252e-05
-0.000108625
-1.44884e-05
-0.00576222
-0.00852489
-7.16574e-05
-0.000130934
-0.000100958
-0.000105295
-0.00681372
-0.00638459
6.52332e-05
0.000215886
0.000123754
0.00013671
-0.00562458
-0.0067449
1.61087e-05
2.56597e-05
-1.83047e-05
7.38059e-05
0.000341877
-0.000214163
1.16956e-05
0.000436723
-0.000184108
1.25739e-06
-0.000121264
-0.000365787
0.000352945
0.000128339
5.76498e-06
-0.00692533
-0.00568649
-0.000111246
-0.000101441
-0.000125409
-8.53303e-05
-0.0053428
-0.00554588
-9.82747e-05
-0.000121523
-0.000106704
-0.000114044
-0.00449591
-0.00659143
-5.61944e-05
5.82926e-06
-2.76436e-05
-2.85299e-05
-0.00358007
-0.0062114
-6.71954e-05
-6.43645e-05
-8.1901e-05
-4.28704e-05
0.000191649
-0.000148402
8.39858e-06
0.00033995
-0.000113532
4.85364e-06
-6.7646e-05
-0.000270297
0.000258838
7.35298e-05
5.57153e-06
-0.00424636
-0.00484739
-9.65275e-05
-8.96679e-05
-0.000100982
-8.59395e-05
-0.00431377
-0.00314937
-8.12026e-05
-9.10947e-05
-8.46178e-05
-9.01914e-05
-0.00269228
-0.00564329
-7.82458e-05
-5.44843e-05
-6.7433e-05
-6.73111e-05
-0.00197231
-0.00505579
-7.342e-05
-7.14535e-05
-7.93047e-05
-6.21884e-05
8.43955e-05
-0.000102559
5.78051e-06
0.00024722
-6.1324e-05
4.90029e-06
-2.57882e-05
-0.000194044
0.000184324
2.9765e-05
5.73832e-06
-0.00220248
-0.00371685
-8.05953e-05
-7.6587e-05
-7.93948e-05
-7.53316e-05
-0.00320588
-0.00144491
-7.29628e-05
-7.5554e-05
-7.08163e-05
-8.06925e-05
-0.00130931
-0.00437631
-7.52423e-05
-6.36491e-05
-7.06151e-05
-7.00288e-05
-0.000786765
-0.00379364
-7.61763e-05
-7.80957e-05
-8.1185e-05
-7.01654e-05
9.74748e-06
-5.78743e-05
1.45894e-05
0.000178009
-2.29322e-05
6.64054e-06
-0.000160415
0.000150906
7.66075e-06
1.84041e-06
-0.00272312
-9.5144e-05
-7.96932e-05
-9.08378e-05
-8.45975e-05
-0.000180595
-0.000207512
-0.000208741
-0.000177149
2.90215e-05
-3.09904e-05
1.42363e-05
-8.03528e-05
-0.00324388
0.000475851
-0.000101466
-8.8763e-05
-9.31765e-05
-9.64741e-05
-0.000112003
-6.5546e-05
-8.11535e-05
-0.000103337
-0.00012486