/*--------------------------------*- C++ -*----------------------------------*\
| =========                 |                                                 |
| \\      /  F ield         | OpenFOAM: The Open Source CFD Toolbox           |
|  \\    /   O peration     | Version:  2.4.0                                 |
|   \\  /    A nd           | Web:      www.OpenFOAM.org                      |
|    \\/     M anipulation  |                                                 |
\*---------------------------------------------------------------------------*/
FoamFile
{
    version     2.0;
    format      ascii;
    class       volScalarField;
    location    "60";
    object      nut;
}
// * * * * * * * * * * * * * * * * * * * * * * * * * * * * * * * * * * * * * //

dimensions      [0 2 -1 0 0 0 0];

internalField   nonuniform List<scalar> 
43096
(
4.13139e-05
0.000108383
0.000121422
0.000112174
9.64418e-05
9.79826e-05
6.57653e-05
5.09166e-05
0.000124439
0.000369841
0.000415628
0.000376371
0.000319772
0.000274179
0.000243526
0.000216367
0.000181569
0.000702258
0.000729967
0.000599853
0.00046741
0.000372986
0.000332885
0.000346994
0.000375006
0.00104991
0.00100323
0.000802271
0.000605627
0.000456707
0.000391973
0.000434501
0.000328301
0.00118983
0.00113727
0.000908441
0.000678052
0.000498651
0.000414321
0.000460111
0.000387232
0.00119008
0.00113437
0.000899022
0.000664798
0.000485583
0.000402469
0.000450828
0.000316475
0.00105681
0.000989064
0.000766646
0.000563431
0.000416924
0.000355976
0.000401227
0.000260676
0.000758852
0.000711509
0.000544701
0.00040245
0.000310272
0.000272682
0.000285277
8.1352e-05
0.00032658
0.000374302
0.000356544
0.000318096
0.000276444
0.000236824
0.000200389
0.00042157
0.0247504
0.0266268
0.0253276
0.022354
0.0184218
0.0139977
0.009443
0.00982806
0.0489346
0.0426196
0.0363497
0.0298714
0.0246975
0.0205309
0.0192698
0.014737
0.0635134
0.0539195
0.0444037
0.035897
0.029476
0.0254153
0.0282688
0.0139402
0.0661459
0.0573531
0.0471333
0.037483
0.0307773
0.0263965
0.030314
0.0138346
0.0640382
0.0544434
0.044218
0.0350954
0.0282845
0.0244899
0.0295818
0.0144979
0.0510004
0.0437229
0.0349426
0.0275519
0.0221457
0.0184488
0.024263
0.0022262
0.0312784
0.0298891
0.0245979
0.0193346
0.0155634
0.0121164
0.0113544
6.36242e-05
0.000336906
0.000398484
0.00038155
0.000341547
0.000297694
0.000257163
0.000222566
0.00044692
0.0247468
0.026623
0.0253242
0.022352
0.0184267
0.0140047
0.0106369
0.0141973
0.0489313
0.0426163
0.036345
0.0298672
0.0247005
0.0205351
0.0243219
0.0899297
0.0635079
0.0539153
0.0444001
0.0358927
0.0294776
0.0254187
0.0384489
0.0899793
0.0661396
0.0573483
0.0471293
0.0374784
0.0307785
0.0264012
0.041138
0.0899793
0.064034
0.0544395
0.0442137
0.0350906
0.0282855
0.0244933
0.0402868
0.0899198
0.0509985
0.0437191
0.0349366
0.0275477
0.022147
0.0184517
0.0331043
0.00311617
0.0340061
0.032078
0.0265645
0.0210169
0.016868
0.0132648
0.0132462
7.97318e-05
0.000318315
0.000364277
0.000347534
0.000310043
0.000269198
0.000230739
0.000193528
0.000410621
0.0157304
0.0178447
0.0169328
0.014827
0.012653
0.0100765
0.00734462
0.00214682
0.0302246
0.0300649
0.0259098
0.020859
0.0173153
0.0142471
0.0129573
0.0032611
0.044034
0.041015
0.0338249
0.0265683
0.0211043
0.0176311
0.0173219
0.00330074
0.0484567
0.0463732
0.0375966
0.0289154
0.0229095
0.0189367
0.0186407
0.00330202
0.0476301
0.044844
0.0360555
0.0274768
0.0216752
0.0180005
0.0179676
0.00325321
0.0402562
0.0369292
0.0293544
0.0222497
0.0177499
0.0147868
0.0146455
0.00174152
0.0254304
0.0246528
0.0199804
0.0154293
0.0122777
0.00993028
0.00851961
0.000103873
0.00011786
0.000330815
7.97691e-05
0.000305234
0.000381187
0.00897896
0.000121384
0.000342715
0.000385735
0.000318465
0.000363733
0.0113054
0.0126818
0.000136272
0.000385092
0.000359713
0.000364429
0.000352273
0.0134834
0.013518
0.0001182
0.000352737
0.000310217
0.000347665
0.000316079
0.0131939
0.0125647
8.36727e-05
0.000303126
0.000267036
0.000310132
0.000275225
0.0118333
0.0110167
6.7342e-05
0.000261463
0.000235348
0.000269236
0.000236388
0.0100686
0.00906018
5.31992e-05
0.000231058
0.000207316
0.000230719
0.000200863
0.00792896
0.00692947
1.67533e-05
0.000200732
4.40908e-05
0.000193498
4.80741e-05
0.00549894
0.000204214
0.000355865
0.000172962
0.000610564
0.000410518
0.013164
0.00154955
0.018653
0.000416774
0.000637522
0.000692074
0.0157362
0.0170893
0.0212354
0.0227746
0.000384283
0.000679674
0.000589723
0.0178486
0.0177295
0.0229301
0.0226182
0.000327566
0.000568791
0.000464675
0.0169344
0.0160262
0.0206702
0.0195441
0.000279927
0.00044801
0.00037119
0.0148258
0.0138581
0.0174203
0.0163736
0.000247515
0.000361151
0.000325912
0.0126474
0.0115491
0.0148985
0.0138294
0.000222068
0.000323029
0.000329296
0.010067
0.00899048
0.012173
0.0111428
5.0965e-05
0.000330493
9.76175e-05
0.00733686
0.000227149
0.00988992
0.000602869
0.000672941
0.000349267
0.000996471
0.00214691
0.0284962
0.00324013
0.0366551
0.00074602
0.00101308
0.000996738
0.0302291
0.0318297
0.0382475
0.0387432
0.000622414
0.000968735
0.000806819
0.0300712
0.0290167
0.0358
0.0336772
0.000485029
0.00077653
0.000612932
0.0259154
0.0235035
0.0297292
0.0269859
0.000383541
0.00058934
0.000462438
0.0208615
0.018986
0.0235304
0.0213778
0.000335225
0.000447859
0.00038851
0.0173129
0.0159194
0.0193351
0.0178052
0.00034392
0.000386481
0.000417476
0.0142385
0.0136324
0.0162125
0.0156954
0.000103384
0.000426679
0.000132097
0.0129473
0.000869167
0.0155181
0.00139616
0.00103229
0.000330289
0.00115993
0.00326122
0.0417665
0.00329472
0.0441856
0.00103178
0.00118188
0.00116028
0.0440414
0.0442493
0.0471885
0.0475808
0.000832425
0.00112824
0.000932469
0.0410241
0.0380173
0.0444568
0.0408777
0.000629568
0.000901035
0.000700306
0.0338356
0.0301346
0.0361333
0.0321343
0.000471848
0.00067299
0.000513723
0.0265774
0.0234712
0.027967
0.0248811
0.000393914
0.000496207
0.000416724
0.0211069
0.0194238
0.0224087
0.0204764
0.000424344
0.000413591
0.000448416
0.0176244
0.0174195
0.0186416
0.0184998
0.000134275
0.000459268
0.000141063
0.0173126
0.00141637
0.018284
0.00146418
0.00116693
0.000385068
0.00116944
0.003301
0.0450381
0.00330347
0.0450426
0.00116927
0.00119374
0.00117379
0.0484666
0.0491265
0.0485624
0.0492442
0.000939733
0.00114119
0.000938943
0.0463833
0.042413
0.046463
0.042457
0.000705432
0.000906538
0.000700318
0.0376097
0.0332081
0.0375871
0.0331377
0.000516394
0.00067196
0.000509284
0.0289275
0.0255077
0.0288191
0.0253375
0.000417443
0.00049098
0.000409412
0.0229153
0.0208902
0.022664
0.0206882
0.000448765
0.000406291
0.000442537
0.0189324
0.0188109
0.0187343
0.0186139
0.000141086
0.000453981
0.000137031
0.0186321
0.00146515
0.0185291
0.00146451
0.00116635
0.000321815
0.00107062
0.00330205
0.0443912
0.00327096
0.0423671
0.00116721
0.00108806
0.00105169
0.0476374
0.0480622
0.0450008
0.0451705
0.000931715
0.0010202
0.000828267
0.0448538
0.04109
0.041708
0.0383407
0.000693301
0.000793299
0.000609224
0.0360693
0.0318993
0.0337105
0.0297047
0.000503617
0.000583063
0.00044565
0.027489
0.0243164
0.0258105
0.0225758
0.000405239
0.000429522
0.000367212
0.021681
0.0197824
0.0200743
0.0183967
0.000438993
0.000365059
0.000400906
0.0179965
0.0178891
0.0165968
0.0164984
0.000135406
0.000412232
0.000123069
0.0179596
0.00146166
0.0167412
0.00141115
0.0010412
0.000286631
0.000795342
0.00325331
0.038232
0.00225974
0.0317924
0.00102031
0.000813624
0.000781276
0.0402606
0.0403291
0.033642
0.0341641
0.000801894
0.000757764
0.0006052
0.036938
0.0339927
0.031564
0.0290794
0.000589644
0.000578397
0.000444532
0.0293648
0.0261322
0.0253404
0.0223289
0.000432445
0.000425225
0.00033663
0.0222578
0.0199904
0.0193659
0.0172798
0.0003579
0.000325666
0.000288477
0.0177534
0.0163157
0.015464
0.0140715
0.000390109
0.00028607
0.000300878
0.0147838
0.0142953
0.0125379
0.0120643
0.000119474
0.000305134
8.36159e-05
0.014642
0.00138835
0.0117657
0.000835733
0.000741558
5.37782e-05
0.000198445
0.0017415
0.0225221
0.000195815
0.000691817
0.000732583
0.00020139
0.000191303
0.0254351
0.0259939
0.000707154
0.000683852
0.00056958
0.000186787
0.000150672
0.0246603
0.0226288
0.000666883
0.000543765
0.000420518
0.000145524
0.000113359
0.0199891
0.0176089
0.000523536
0.000414316
0.000320516
0.000109269
8.56819e-05
0.0154353
0.0137311
0.000398432
0.000323401
0.00027508
8.29085e-05
6.90987e-05
0.0122817
0.01106
0.000313067
0.000275396
0.000282673
6.76764e-05
6.29237e-05
0.0099318
0.00932868
0.000271672
0.000279616
7.66142e-05
6.19729e-05
2.13328e-05
0.00851776
0.000545201
0.000281236
7.58195e-05
0.000312464
0.000390716
0.0100759
6.29727e-05
0.00031805
0.000403275
0.0103737
0.000373358
0.013037
0.0146072
0.000336871
0.000397299
0.0139036
0.0156698
0.000361051
0.0163163
0.0163345
0.000398463
0.000386288
0.0175499
0.0176777
0.000323905
0.0164241
0.0157194
0.000381519
0.000347708
0.0178578
0.01718
0.000282363
0.0151149
0.0141434
0.000341506
0.000303955
0.0165127
0.0154629
0.000242649
0.0128993
0.0114295
0.000297645
0.000263111
0.0140151
0.0123996
0.000207467
0.00952405
0.00823583
0.000257103
0.000229737
0.0103542
0.0090139
4.98049e-05
0.00678974
0.000216259
0.00022249
5.50316e-05
0.00743647
0.000253508
0.0157854
0.00207339
0.0260409
0.000446824
0.0171823
0.00301844
0.0310019
0.000240883
0.0130564
0.000891121
0.0106329
0.000287242
0.0151316
0.00138569
0.0449605
0.0147532
0.0567868
0.0141971
0.0534422
0.0899162
0.0713558
0.00398466
0.0251055
0.0109134
0.0243274
0.0106026
0.0339841
0.0591081
0.0612831
0.0139949
0.0626353
0.0899306
0.077294
0.0899798
0.0785805
0.0109656
0.0298562
0.0114186
0.0384607
0.059925
0.0405484
0.0638968
0.063064
0.0137812
0.0630855
0.08998
0.078814
0.0899792
0.0788255
0.011408
0.0302595
0.0114174
0.0411506
0.0639598
0.0410821
0.0639027
0.0627763
0.0144768
0.061559
0.08998
0.0786506
0.0899324
0.0774879
0.0114098
0.0278128
0.0109714
0.0402995
0.0638658
0.0379817
0.0597049
0.0575586
0.00980302
0.0468489
0.0899205
0.0719425
0.0140728
0.0549657
0.010899
0.0179497
0.00392499
0.0331157
0.0588942
0.0229063
0.0105001
0.0292329
0.000206165
0.000725961
0.00311616
0.0328355
0.000207843
0.000807802
0.0317095
0.000741924
0.000711899
0.0340072
0.0340447
0.000820396
0.00077101
0.0278103
0.000693491
0.000561853
0.0320798
0.0299247
0.000748742
0.000603632
0.0219711
0.000540877
0.00042729
0.0265675
0.0238599
0.00058054
0.000461262
0.0173984
0.000411016
0.000333723
0.0210191
0.0189592
0.000443689
0.000361873
0.0138593
0.0003231
0.000285486
0.0168717
0.0150016
0.00035033
0.000315305
0.0117081
0.000281718
0.000295062
0.0132651
0.0130569
0.000312759
0.000347955
0.000836915
0.000298466
8.14226e-05
0.0132535
0.00134203
0.000357352
0.000103285
0.000318002
0.000403296
0.0103748
8.14081e-05
0.000312377
0.000390865
0.0100741
0.000397221
0.0139022
0.0156691
0.000326381
0.000373246
0.013033
0.014602
0.000386208
0.0175485
0.0176771
0.000374085
0.000360952
0.0163122
0.01633
0.000347627
0.0178561
0.0171797
0.000356342
0.000323832
0.0164215
0.0157164
0.000303881
0.0165118
0.015463
0.000317916
0.00028232
0.0151145
0.014143
0.000263044
0.014016
0.0124024
0.000276299
0.000242657
0.0129036
0.0114357
0.000229682
0.0103581
0.00902092
0.000236723
0.000207475
0.00953106
0.00823864
5.50079e-05
0.00745041
0.000253437
0.000200284
4.98179e-05
0.00678395
0.000216265
0.0171821
0.00301839
0.0309999
0.000421592
0.0157829
0.00207331
0.0260395
0.00028717
0.0151368
0.001385
0.00944383
0.000240867
0.0130555
0.000890625
0.0534391
0.0899167
0.0713507
0.00982727
0.0449595
0.0147535
0.0567844
0.0106025
0.0339845
0.0591213
0.019275
0.00398419
0.0251028
0.0109145
0.0772837
0.0899802
0.0785704
0.0147373
0.0612799
0.0139964
0.0626299
0.0599421
0.0405486
0.0639133
0.0282722
0.0109663
0.0298546
0.0114213
0.0788017
0.0899795
0.0788152
0.0139415
0.0630595
0.0137807
0.0630801
0.0639797
0.0410821
0.0639192
0.0303203
0.0114101
0.0302592
0.0114201
0.0786397
0.089933
0.0774808
0.0138357
0.0627737
0.0144765
0.0615573
0.0638856
0.037981
0.059718
0.0295877
0.0114118
0.027812
0.0109727
0.0719369
0.0140734
0.0549649
0.0145006
0.05756
0.00980285
0.046851
0.058911
0.0229064
0.0104996
0.0242689
0.0108996
0.0179572
0.00392479
0.0328357
0.000208686
0.000807807
0.0022262
0.0292336
0.000206204
0.000725922
0.0340439
0.000820392
0.00077098
0.0312768
0.0317068
0.000741863
0.000711771
0.0299225
0.000748712
0.000603588
0.0298865
0.0278052
0.000693352
0.000561697
0.023858
0.0005805
0.000461214
0.0245943
0.0219663
0.000540714
0.000427164
0.0189578
0.000443644
0.000361818
0.0193329
0.0173946
0.000410885
0.000333634
0.0150073
0.000350281
0.00031524
0.0155656
0.0138588
0.000323013
0.000285456
0.0130652
0.000312701
0.000347858
0.0121236
0.0117119
0.000281692
0.000295049
0.00134138
0.000357267
0.000103225
0.0113714
0.000836413
0.000298441
8.1439e-05
0.000304994
0.000381245
0.00897432
3.94405e-05
0.000107572
0.000118415
0.000330449
0.000363473
0.0113002
0.0126778
0.000133684
0.0001245
0.000342419
0.00038561
0.000352025
0.0134809
0.0135167
0.000148722
0.000113209
0.000384966
0.000359657
0.000315864
0.0131947
0.0125664
0.000111543
0.000100384
0.00035269
0.000310205
0.000275057
0.0118369
0.0110216
0.000117357
8.17882e-05
0.00030312
0.000267057
0.000236279
0.0100768
0.0090693
8.00958e-05
6.83489e-05
0.000261493
0.000235404
0.000200778
0.00794134
0.00693826
7.97804e-05
6.55096e-05
0.000231134
0.000207387
4.80468e-05
0.00550936
0.000204135
5.07247e-05
1.71879e-05
0.000200808
4.41288e-05
0.0131572
0.00154945
0.0186491
0.000151927
0.000355557
0.000173055
0.000610402
0.017085
0.0212313
0.0227701
0.000369509
0.000416655
0.000637371
0.000691898
0.0177271
0.0229279
0.0226146
0.000415442
0.000384205
0.000679516
0.000589553
0.0160272
0.0206704
0.0195424
0.000376232
0.000327538
0.00056864
0.000464561
0.0138632
0.0174237
0.0163769
0.000319663
0.000279941
0.000447921
0.00037117
0.01156
0.0149075
0.0138401
0.000274094
0.000247577
0.000361159
0.000325968
0.00900276
0.0121886
0.0111572
0.000243485
0.000222144
0.000323123
0.000329361
0.000227061
0.00991064
0.000602024
0.000216327
5.10271e-05
0.000330578
9.75913e-05
0.028495
0.00324
0.0366533
0.000181327
0.000672801
0.000356193
0.000996309
0.0318242
0.0382427
0.0387368
0.00070207
0.00074584
0.00101288
0.00099653
0.0290113
0.0357943
0.0336708
0.000729736
0.000622218
0.000968514
0.00080656
0.0235006
0.0297253
0.0269809
0.00059961
0.000484885
0.000776268
0.000612697
0.0189871
0.0235288
0.0213766
0.000467222
0.000383499
0.000589118
0.000462306
0.0159294
0.019339
0.0178121
0.000372876
0.000335281
0.000447753
0.000388526
0.0136499
0.0162264
0.0157132
0.000332805
0.000343982
0.000386541
0.000417497
0.00086826
0.0155404
0.00139485
0.000346844
0.000103365
0.0004267
0.000131995
0.0417627
0.00329442
0.04418
0.00037219
0.00103214
0.000330397
0.00115964
0.0442417
0.0471807
0.0475723
0.00104965
0.00103157
0.00118157
0.00116004
0.0380101
0.0444494
0.0408705
0.00100292
0.000832162
0.00112798
0.000932179
0.0301283
0.0361258
0.0321265
0.000801931
0.000629334
0.000900745
0.000700044
0.0234683
0.027962
0.0248774
0.000605329
0.000471715
0.000672732
0.000513546
0.0194309
0.0224092
0.0204806
0.000456504
0.00039393
0.000496049
0.000416708
0.0174403
0.0186514
0.018517
0.000391855
0.000424378
0.000413607
0.000448419
0.00141514
0.0183059
0.00146308
0.000434249
0.000134184
0.000459237
0.000140958
0.0450312
0.00330333
0.0450363
0.000328532
0.00116662
0.00030807
0.00116919
0.0491173
0.0485543
0.0492354
0.00118941
0.00116902
0.00119346
0.00117353
0.042405
0.0464552
0.0424493
0.00113693
0.000939444
0.00114092
0.000938645
0.0331982
0.0375784
0.0331288
0.000908074
0.000705175
0.000906241
0.000700034
0.0255024
0.0288113
0.025333
0.000677716
0.000516223
0.000671679
0.000509087
0.0208951
0.0226621
0.0206906
0.000498409
0.000417435
0.0004908
0.000409389
0.0188286
0.0187414
0.0186288
0.000414176
0.000448786
0.000406301
0.000442524
0.00146412
0.018551
0.00146342
0.00045982
0.000140995
0.000453941
0.000136922
0.0443882
0.00327084
0.0423655
0.000317895
0.00116619
0.000322038
0.00107053
0.0480544
0.044996
0.045164
0.00118977
0.00116697
0.00108795
0.00105147
0.041082
0.0417006
0.038333
0.00113401
0.000931422
0.00101998
0.000827991
0.0318892
0.0337007
0.0296971
0.000898653
0.000693026
0.000793017
0.000608971
0.0243103
0.0258021
0.0225718
0.000664449
0.000503433
0.000582815
0.000445501
0.0197874
0.0200732
0.0183996
0.000485333
0.000405229
0.000429392
0.000367212
0.0179079
0.0166037
0.0165152
0.000402339
0.000438999
0.000365071
0.000400886
0.00146062
0.0167614
0.00140988
0.000450556
0.000135315
0.000412174
0.000122967
0.0382323
0.00225972
0.0317921
0.000316514
0.00104112
0.000232622
0.000795235
0.0403234
0.033638
0.0341583
0.00105665
0.00102008
0.000813489
0.00078105
0.0339842
0.0315566
0.0290715
0.000988751
0.000801634
0.000757543
0.000604969
0.0261244
0.0253323
0.0223232
0.000766313
0.000589413
0.000578177
0.000444377
0.019987
0.0193611
0.017278
0.00056314
0.000432321
0.00042509
0.000336576
0.0163199
0.0154638
0.0140736
0.000416732
0.000357908
0.000325628
0.000288498
0.0143125
0.0125432
0.0120769
0.00035584
0.00039011
0.0002861
0.000300883
0.00138711
0.0117832
0.000834852
0.000400951
0.000119405
0.000305128
8.35811e-05
0.0225208
0.000195831
0.000691716
0.000217943
0.00074143
5.33816e-05
0.000198346
0.0259898
0.000707039
0.000683646
0.00075866
0.000732364
0.000201313
0.000191161
0.022623
0.000666674
0.00054354
0.000711215
0.000569364
0.000186674
0.000150544
0.0176045
0.0005233
0.0004141
0.000544425
0.000420385
0.000145419
0.000113267
0.0137302
0.00039823
0.000323217
0.000402256
0.00032048
0.00010919
8.56231e-05
0.0110638
0.000312906
0.000275257
0.000310152
0.000275113
8.28594e-05
6.90674e-05
0.00934152
0.000271549
0.000279461
0.00027258
0.000282703
6.76532e-05
6.2907e-05
0.000544458
0.0002811
7.57564e-05
0.000285099
7.66069e-05
6.19701e-05
2.0913e-05
0.00220666
4.38089e-05
8.42673e-05
8.40526e-05
0.000181066
0.00023153
0.000179899
0.00480738
0.000117453
0.000257808
0.000266611
0.000290703
0.00436767
0.000276046
0.00560921
0.000120169
0.000284919
0.000305634
0.000304545
0.00552212
0.00028197
0.00540572
0.000107478
0.000267957
0.00029152
0.000280679
0.00549055
0.000257667
0.00483744
9.07945e-05
0.000238089
0.000259119
0.000246272
0.00497423
0.000227006
0.00415306
7.43481e-05
0.000207751
0.000223777
0.000211677
0.00431137
0.00019757
0.00342696
7.42165e-05
0.000179649
0.000190797
0.00018015
0.00359286
0.000170212
0.00230286
5.30353e-05
0.000146703
0.000154938
0.000131066
0.00269232
0.00012353
0.00670307
0.000276217
0.000144055
0.000339577
0.00574697
0.000400693
0.000329961
0.0111277
0.000402311
0.000458354
0.00894061
0.00959076
0.0103746
0.000501302
0.0117025
0.00040816
0.000511508
0.0101283
0.0101865
0.0116548
0.00049966
0.0101844
0.000356292
0.000450963
0.00928775
0.00908871
0.0104025
0.000422847
0.00856275
0.000301912
0.000370977
0.00802362
0.00780676
0.00880599
0.000346784
0.00737478
0.00026201
0.000310989
0.00693706
0.0067457
0.00759685
0.000296684
0.00637228
0.000235508
0.000278832
0.00593585
0.00575803
0.00654815
0.000273539
0.00475313
0.000191369
0.00026353
0.00469359
0.00411846
0.00535827
0.000241938
0.0144628
0.000498897
0.000222004
0.000652586
0.0119119
0.00089446
0.000651761
0.0211991
0.000759429
0.000853644
0.017682
0.0188245
0.0200781
0.000894509
0.0197042
0.000689715
0.000837133
0.0184073
0.0178847
0.0205905
0.000782399
0.0154316
0.000548732
0.000675665
0.0150609
0.0141609
0.0164761
0.000614736
0.0118616
0.00042747
0.000519789
0.0116778
0.011025
0.0125834
0.000471277
0.00979034
0.00035122
0.000406454
0.00954807
0.0091853
0.0102351
0.000379225
0.00886241
0.00033346
0.000358431
0.00836103
0.0082495
0.00893147
0.000361386
0.0081339
0.000335959
0.000386888
0.00787875
0.00731256
0.00866737
0.000382495
0.0199058
0.000867774
0.000327975
0.00115588
0.0193675
0.0012034
0.000926952
0.0286771
0.0010787
0.00112531
0.0265535
0.0275368
0.0276378
0.00115218
0.0260948
0.000930786
0.00107283
0.0259972
0.0248481
0.0274778
0.000992962
0.0200816
0.000724219
0.000857529
0.0205346
0.0190096
0.0218065
0.000771414
0.0147232
0.000541519
0.00064214
0.0152685
0.0140856
0.0159956
0.000570933
0.0116326
0.000419688
0.00047836
0.0117972
0.0112071
0.0122855
0.000437004
0.0106061
0.000396133
0.000404764
0.0103088
0.0102617
0.0106439
0.000408827
0.010429
0.000435895
0.000449732
0.0105444
0.0100674
0.0109517
0.000452105
0.0203013
0.000956738
0.000372177
0.00122755
0.020379
0.00120249
0.000938804
0.0309776
0.00121974
0.00119733
0.0296561
0.0308856
0.0297203
0.00122949
0.0286378
0.00105082
0.00114892
0.0297523
0.0284384
0.0300188
0.00106138
0.021842
0.000815852
0.000917591
0.0236718
0.0216554
0.0238844
0.00082405
0.0157616
0.000599949
0.000684144
0.0171336
0.0156332
0.0172876
0.000605003
0.0122873
0.000452468
0.000501743
0.012947
0.0122208
0.0130363
0.000454207
0.0111436
0.000417277
0.000414494
0.0111011
0.0111075
0.0111365
0.000417321
0.0109912
0.000463008
0.000460388
0.0114955
0.0109531
0.0115541
0.000463626
0.0202771
0.000943874
0.000401855
0.0012114
0.0203138
0.00121872
0.000945725
0.0301321
0.00122023
0.00116383
0.0294526
0.0306813
0.0290003
0.00118972
0.0272854
0.00104644
0.00109986
0.0295018
0.0280498
0.0285944
0.00101382
0.0205366
0.000804982
0.000865661
0.0232123
0.0212184
0.0224696
0.000773646
0.0147518
0.000586284
0.000637139
0.0166252
0.0152057
0.0161509
0.000562197
0.0115349
0.000439255
0.000466133
0.0125785
0.0118617
0.0122219
0.00042312
0.0105311
0.000405998
0.000390435
0.0108155
0.0107706
0.0105955
0.000394902
0.0104845
0.000454491
0.000439398
0.0112056
0.010708
0.0109675
0.000443315
0.0178111
0.000880769
0.000288735
0.00115908
0.0189551
0.00106616
0.00079408
0.0249796
0.00107844
0.000968345
0.0256147
0.0265836
0.0241235
0.000985982
0.0219252
0.000910591
0.000894494
0.0249394
0.0235792
0.0230456
0.000821633
0.0162019
0.000686748
0.000686312
0.0188618
0.0175531
0.017519
0.000613954
0.0118545
0.00050053
0.000503593
0.013691
0.0127762
0.0127884
0.000449539
0.00949221
0.000381739
0.000378126
0.0106388
0.0101319
0.00996031
0.000349341
0.00863485
0.000360516
0.000328558
0.00924442
0.00922212
0.00870992
0.000332642
0.00837578
0.000404689
0.000366736
0.00944637
0.00907284
0.00875292
0.00036752
0.00949102
0.000595571
0.000169683
0.000750558
0.0118604
0.000586113
0.000478319
0.0152281
0.000778738
0.000613641
0.017253
0.017994
0.0145054
0.000626396
0.014007
0.000655036
0.000574994
0.0168932
0.0162633
0.0144673
0.000530187
0.0108285
0.000488755
0.000443857
0.013124
0.0123572
0.0114361
0.000400117
0.0082313
0.000363374
0.000333713
0.00983751
0.00930922
0.00866751
0.000303988
0.00660915
0.000290493
0.000262901
0.00782782
0.00748561
0.00687584
0.00024726
0.00570365
0.000273392
0.000230925
0.00665391
0.00660836
0.00582129
0.000229803
0.00470468
0.000274237
0.000231406
0.00610597
0.00562421
0.00515343
0.00021592
0.00339155
0.000214552
0.000274592
8.36971e-05
0.00338917
0.000205122
0.000274498
0.00808502
0.000355622
0.0069676
0.000337531
0.00785183
0.000369867
0.00715832
0.0101561
0.0003719
0.00945262
0.000391129
0.00975233
0.000388773
0.00983872
0.0100003
0.000343289
0.00959602
0.000372777
0.00958504
0.000359073
0.0100269
0.00899268
0.000303116
0.00877266
0.000333095
0.00863117
0.000317636
0.00918547
0.00762112
0.00026265
0.00755969
0.000289926
0.00731759
0.000275846
0.00790351
0.00601442
0.000225926
0.00602938
0.000249418
0.00575077
0.000238905
0.00630894
0.00417582
0.00017301
0.00458905
0.00021414
0.00392709
0.000186369
0.00485744
0.0121994
0.00959579
0.000565561
0.000441683
0.0118657
0.0099402
0.000625515
0.0580634
0.0387604
0.0151483
0.0143564
0.0464138
0.0452846
0.0844587
0.0681403
0.0546385
0.0143382
0.0868595
0.0549695
0.0680078
0.0866349
0.0681035
0.0555621
0.0137665
0.0863857
0.0555784
0.068143
0.0862916
0.0681749
0.055516
0.0140516
0.0863493
0.0554104
0.0681636
0.0865122
0.0650051
0.0537766
0.0147707
0.086755
0.0520812
0.0672214
0.0857153
0.0245057
0.030195
0.000945225
0.00291796
0.021907
0.0337466
0.00113372
0.00332336
0.000166846
0.000241755
8.2552e-05
0.00327227
0.000197338
0.000270729
0.00821089
0.000373262
0.00724137
0.000337987
0.00820441
0.000371822
0.00724339
0.0104807
0.00039674
0.0102306
0.000394439
0.0106016
0.000392226
0.0101384
0.0103379
0.000367775
0.0105199
0.000376512
0.0104823
0.000362762
0.0103827
0.00928853
0.000325787
0.00963532
0.000336638
0.0094311
0.000321043
0.00949714
0.00785109
0.000283419
0.00828301
0.000293153
0.00797361
0.000279003
0.00816212
0.00625673
0.000246887
0.00664779
0.000252723
0.00635584
0.000242332
0.00655409
0.00434889
0.000194309
0.00514741
0.000217725
0.00443467
0.000189733
0.00505811
0.0127051
0.0100079
0.000669346
0.000445044
0.0130522
0.00981063
0.000645129
0.0635509
0.050668
0.0863771
0.0144344
0.0652388
0.0495697
0.085428
0.0797494
0.0849012
0.0899765
0.0883882
0.0852728
0.0795369
0.0882986
0.079617
0.0854574
0.0899788
0.0881786
0.0854502
0.0796711
0.0881329
0.0797407
0.0854659
0.0899779
0.0881629
0.0854628
0.0797085
0.0882415
0.0739299
0.0826971
0.0881357
0.0883167
0.0771203
0.0779615
0.0869498
0.0260809
0.0376294
0.00119508
0.00301933
0.0269718
0.0366105
0.00117008
0.00295299
0.000213812
0.000271291
7.11402e-05
0.00329018
0.000195176
0.000247945
0.00657996
0.000346459
0.00650615
0.000284687
0.00734336
0.000310609
0.00585796
0.00787613
0.00036263
0.00867208
0.000326184
0.00897461
0.000325086
0.0076445
0.00764899
0.000334899
0.00879034
0.000311459
0.00879798
0.000300078
0.00767154
0.00683079
0.000295393
0.00802715
0.000277302
0.00788699
0.000263837
0.00695422
0.00579943
0.000255595
0.00689667
0.000240077
0.00666813
0.000227451
0.00598574
0.00471514
0.000219758
0.0055723
0.000205269
0.00533836
0.00019417
0.00492272
0.00309174
0.000166521
0.00419721
0.000168096
0.00358238
0.000142981
0.00365448
0.00969209
0.00939424
0.000527603
0.000362606
0.0110548
0.0081086
0.000438278
0.0244161
0.0283409
0.00295764
0.000811622
0.0334594
0.020014
0.00114781
0.0335031
0.0419478
0.0032805
0.00141516
0.0427271
0.0325361
0.00145656
0.0346924
0.0440247
0.00330031
0.00148505
0.0440665
0.0347647
0.00146871
0.0344403
0.0438799
0.00329763
0.00147319
0.0436371
0.0346318
0.00147426
0.0298174
0.0408828
0.00311798
0.00141252
0.0390871
0.0318742
0.00130899
0.0141297
0.0240547
0.000851025
0.000878476
0.0182988
0.0189291
0.000650659
0.00301506
7.00304e-05
0.000249179
0.000255152
0.000204504
0.00377822
0.000204776
0.00367306
9.39365e-05
0.000258856
0.00032058
0.000259825
0.00475007
0.000205142
0.00472353
0.000271234
0.000280654
0.00671632
0.00561315
0.00578989
0.000228007
0.00295378
7.10021e-05
0.000213628
0.000270909
0.0001954
0.000247282
0.00328726
0.00400917
0.000272825
0.000242835
0.0055741
0.000219839
0.00504231
0.00441146
0.00490819
0.000341
0.000304051
0.00753887
0.000274883
0.00664323
0.00566722
0.0051339
0.000119149
0.000285159
0.00030487
0.000295378
0.00538556
0.000279328
0.00671419
0.000280145
0.000370669
0.00743221
0.00619844
0.00799944
0.000299661
0.00696837
0.000309704
0.000376006
0.00863823
0.0072986
0.00830735
0.000303277
0.00658346
0.000284996
0.000346683
0.00651075
0.000310867
0.00586351
0.00734557
0.00704026
0.000325698
0.000352302
0.00845882
0.000315858
0.00750419
0.00787799
0.00560208
0.000119529
0.000271675
0.000295188
0.000302397
0.00559102
0.000279419
0.00749476
0.000309252
0.000379533
0.00866891
0.00734867
0.00881019
0.000305479
0.00734387
0.000293164
0.000374526
0.00856316
0.00737201
0.00856357
0.000302405
0.00787873
0.000326376
0.00036286
0.0086767
0.000325293
0.00764868
0.0089763
0.00779365
0.000315619
0.000360245
0.00901678
0.000323079
0.0078855
0.0088809
0.0052591
0.000106067
0.000242455
0.000263945
0.000276058
0.00514796
0.000253369
0.00707299
0.000288758
0.000335369
0.00818149
0.00712126
0.00811578
0.000276895
0.00677915
0.00025979
0.000328043
0.00761361
0.0066977
0.00773438
0.00027201
0.00765097
0.000311607
0.000335093
0.00879446
0.000300244
0.00767509
0.00879905
0.00735389
0.00028268
0.000329513
0.00837548
0.000295347
0.00727639
0.0084519
0.00465475
8.91649e-05
0.000211945
0.000228603
0.000241188
0.00450876
0.000222589
0.00628707
0.000254886
0.000287214
0.00724296
0.00639704
0.00710813
0.000242866
0.00599662
0.000226846
0.000280966
0.00662546
0.00587151
0.00678625
0.00023811
0.00683223
0.000277416
0.000295543
0.00803038
0.000263965
0.00695706
0.00788733
0.00649534
0.0002454
0.000289373
0.00729578
0.000258557
0.00633772
0.00749854
0.00395783
7.27906e-05
0.0001836
0.000195277
0.000206836
0.00379497
0.000193412
0.00542844
0.000222324
0.000249946
0.00631346
0.00557513
0.0061432
0.000211789
0.00514195
0.000197427
0.000245307
0.00565906
0.00497405
0.00585672
0.000207453
0.00579817
0.000240124
0.000255679
0.00689743
0.000227493
0.00598601
0.00666614
0.00546062
0.000210162
0.000249831
0.00599227
0.000222344
0.00525296
0.00625903
0.00322391
5.8979e-05
0.000153004
0.000161703
0.000175519
0.00300846
0.000165966
0.0044925
0.000193244
0.000222522
0.00533936
0.00467388
0.00515697
0.000183897
0.00419825
0.000166753
0.000218539
0.00456454
0.0039354
0.00483694
0.000179545
0.0047123
0.000205263
0.000219778
0.00557111
0.000194165
0.00492065
0.00533529
0.00440815
0.000175194
0.000214946
0.00469375
0.000189338
0.00412577
0.00499155
0.00169005
3.95133e-05
3.29357e-05
3.69466e-05
0.000117893
0.000104142
0.000110404
0.0030015
0.000160052
0.000175439
0.00402992
0.00348235
0.00351598
0.000136153
0.00215561
3.47209e-05
0.000159132
0.000156179
0.000115937
0.00253982
0.000122068
0.00308913
0.000168055
0.000166513
0.00419647
0.000142948
0.00365213
0.00358093
0.00221475
4.06286e-05
0.000151525
0.000138033
0.000129454
0.000115299
0.00254901
0.0028653
0.000171733
0.000152819
0.00374151
0.000128318
0.00333962
0.00326878
0.00820269
0.000299887
0.000438829
0.00816959
0.0070869
0.0094376
0.000361828
0.00791124
0.000149819
0.000450795
0.000568992
0.000432586
0.00962242
0.000354367
0.00988426
0.000476447
0.000502282
0.0134016
0.0113479
0.0118038
0.000391676
0.00969918
0.000362481
0.00939789
0.000527567
0.00811548
0.000438327
0.0110588
0.0117515
0.000686298
0.000620195
0.0203668
0.000479442
0.0154225
0.0147907
0.0114991
0.000408039
0.000514753
0.0101986
0.0098755
0.011798
0.00050803
0.0132385
0.000498316
0.00069396
0.0146345
0.0124103
0.0155195
0.000546252
0.0135907
0.000555685
0.000701066
0.0161831
0.0138154
0.0159899
0.000553231
0.0112628
0.000402274
0.000463421
0.00974583
0.00989595
0.0110739
0.000490737