# Probe 0 (8.33483 5.05038 0.255327)
# Probe 1 (8.33483 5.05038 0.765981)
# Probe 2 (8.33483 5.05038 1.27664)
# Probe 3 (8.33483 5.05038 1.78729)
# Probe 4 (8.33483 5.05038 2.29794)
# Probe 5 (8.33483 5.05038 2.8086)
# Probe 6 (8.33483 5.05038 3.31925)
# Probe 7 (8.33483 5.05038 3.82991)
# Probe 8 (8.33483 5.05038 4.34056)
# Probe 9 (8.33483 5.05038 4.85121)
# Probe 10 (8.33483 5.05038 5.36187)
# Probe 11 (8.33483 5.05038 5.87252)
# Probe 12 (8.33483 5.05038 6.38318)
# Probe 13 (8.33483 5.05038 6.89383)
# Probe 14 (8.33483 5.05038 7.40448)
# Probe 15 (8.33483 5.05038 7.91514)
# Probe 16 (8.33483 5.05038 8.42579)
# Probe 17 (7.82695 5.05038 0.255327)
# Probe 18 (7.82695 5.05038 0.765981)
# Probe 19 (7.82695 5.05038 1.27664)
# Probe 20 (7.82695 5.05038 1.78729)
# Probe 21 (7.82695 5.05038 2.29794)
# Probe 22 (7.82695 5.05038 2.8086)
# Probe 23 (7.82695 5.05038 3.31925)
# Probe 24 (7.82695 5.05038 3.82991)
# Probe 25 (7.82695 5.05038 4.34056)
# Probe 26 (7.82695 5.05038 4.85121)
# Probe 27 (7.82695 5.05038 5.36187)
# Probe 28 (7.82695 5.05038 5.87252)
# Probe 29 (7.82695 5.05038 6.38318)
# Probe 30 (7.82695 5.05038 6.89383)
# Probe 31 (7.82695 5.05038 7.40448)
# Probe 32 (7.82695 5.05038 7.91514)
# Probe 33 (7.82695 5.05038 8.42579)
# Probe 34 (7.31906 5.05038 0.255327)
# Probe 35 (7.31906 5.05038 0.765981)
# Probe 36 (7.31906 5.05038 1.27664)
# Probe 37 (7.31906 5.05038 1.78729)
# Probe 38 (7.31906 5.05038 2.29794)
# Probe 39 (7.31906 5.05038 2.8086)
# Probe 40 (7.31906 5.05038 3.31925)
# Probe 41 (7.31906 5.05038 3.82991)
# Probe 42 (7.31906 5.05038 4.34056)
# Probe 43 (7.31906 5.05038 4.85121)
# Probe 44 (7.31906 5.05038 5.36187)
# Probe 45 (7.31906 5.05038 5.87252)
# Probe 46 (7.31906 5.05038 6.38318)
# Probe 47 (7.31906 5.05038 6.89383)
# Probe 48 (7.31906 5.05038 7.40448)
# Probe 49 (7.31906 5.05038 7.91514)
# Probe 50 (7.31906 5.05038 8.42579)
# Probe 51 (6.81117 5.05038 0.255327)
# Probe 52 (6.81117 5.05038 0.765981)
# Probe 53 (6.81117 5.05038 1.27664)
# Probe 54 (6.81117 5.05038 1.78729)
# Probe 55 (6.81117 5.05038 2.29794)
# Probe 56 (6.81117 5.05038 2.8086)
# Probe 57 (6.81117 5.05038 3.31925)
# Probe 58 (6.81117 5.05038 3.82991)
# Probe 59 (6.81117 5.05038 4.34056)
# Probe 60 (6.81117 5.05038 4.85121)
# Probe 61 (6.81117 5.05038 5.36187)
# Probe 62 (6.81117 5.05038 5.87252)
# Probe 63 (6.81117 5.05038 6.38318)
# Probe 64 (6.81117 5.05038 6.89383)
# Probe 65 (6.81117 5.05038 7.40448)
# Probe 66 (6.81117 5.05038 7.91514)
# Probe 67 (6.81117 5.05038 8.42579)
# Probe 68 (6.30329 5.05038 0.255327)
# Probe 69 (6.30329 5.05038 0.765981)
# Probe 70 (6.30329 5.05038 1.27664)
# Probe 71 (6.30329 5.05038 1.78729)
# Probe 72 (6.30329 5.05038 2.29794)
# Probe 73 (6.30329 5.05038 2.8086)
# Probe 74 (6.30329 5.05038 3.31925)
# Probe 75 (6.30329 5.05038 3.82991)
# Probe 76 (6.30329 5.05038 4.34056)
# Probe 77 (6.30329 5.05038 4.85121)
# Probe 78 (6.30329 5.05038 5.36187)
# Probe 79 (6.30329 5.05038 5.87252)
# Probe 80 (6.30329 5.05038 6.38318)
# Probe 81 (6.30329 5.05038 6.89383)
# Probe 82 (6.30329 5.05038 7.40448)
# Probe 83 (6.30329 5.05038 7.91514)
# Probe 84 (6.30329 5.05038 8.42579)
# Probe 85 (5.7954 5.05038 0.255327)
# Probe 86 (5.7954 5.05038 0.765981)
# Probe 87 (5.7954 5.05038 1.27664)
# Probe 88 (5.7954 5.05038 1.78729)
# Probe 89 (5.7954 5.05038 2.29794)
# Probe 90 (5.7954 5.05038 2.8086)
# Probe 91 (5.7954 5.05038 3.31925)
# Probe 92 (5.7954 5.05038 3.82991)
# Probe 93 (5.7954 5.05038 4.34056)
# Probe 94 (5.7954 5.05038 4.85121)
# Probe 95 (5.7954 5.05038 5.36187)
# Probe 96 (5.7954 5.05038 5.87252)
# Probe 97 (5.7954 5.05038 6.38318)
# Probe 98 (5.7954 5.05038 6.89383)
# Probe 99 (5.7954 5.05038 7.40448)
# Probe 100 (5.7954 5.05038 7.91514)
# Probe 101 (5.7954 5.05038 8.42579)
# Probe 102 (5.28751 5.05038 0.255327)
# Probe 103 (5.28751 5.05038 0.765981)
# Probe 104 (5.28751 5.05038 1.27664)
# Probe 105 (5.28751 5.05038 1.78729)
# Probe 106 (5.28751 5.05038 2.29794)
# Probe 107 (5.28751 5.05038 2.8086)
# Probe 108 (5.28751 5.05038 3.31925)
# Probe 109 (5.28751 5.05038 3.82991)
# Probe 110 (5.28751 5.05038 4.34056)
# Probe 111 (5.28751 5.05038 4.85121)
# Probe 112 (5.28751 5.05038 5.36187)
# Probe 113 (5.28751 5.05038 5.87252)
# Probe 114 (5.28751 5.05038 6.38318)
# Probe 115 (5.28751 5.05038 6.89383)
# Probe 116 (5.28751 5.05038 7.40448)
# Probe 117 (5.28751 5.05038 7.91514)
# Probe 118 (5.28751 5.05038 8.42579)
# Probe 119 (4.77963 5.05038 0.255327)
# Probe 120 (4.77963 5.05038 0.765981)
# Probe 121 (4.77963 5.05038 1.27664)
# Probe 122 (4.77963 5.05038 1.78729)
# Probe 123 (4.77963 5.05038 2.29794)
# Probe 124 (4.77963 5.05038 2.8086)
# Probe 125 (4.77963 5.05038 3.31925)
# Probe 126 (4.77963 5.05038 3.82991)
# Probe 127 (4.77963 5.05038 4.34056)
# Probe 128 (4.77963 5.05038 4.85121)
# Probe 129 (4.77963 5.05038 5.36187)
# Probe 130 (4.77963 5.05038 5.87252)
# Probe 131 (4.77963 5.05038 6.38318)
# Probe 132 (4.77963 5.05038 6.89383)
# Probe 133 (4.77963 5.05038 7.40448)
# Probe 134 (4.77963 5.05038 7.91514)
# Probe 135 (4.77963 5.05038 8.42579)
# Probe 136 (4.27174 5.05038 0.255327)
# Probe 137 (4.27174 5.05038 0.765981)
# Probe 138 (4.27174 5.05038 1.27664)
# Probe 139 (4.27174 5.05038 1.78729)
# Probe 140 (4.27174 5.05038 2.29794)
# Probe 141 (4.27174 5.05038 2.8086)
# Probe 142 (4.27174 5.05038 3.31925)
# Probe 143 (4.27174 5.05038 3.82991)
# Probe 144 (4.27174 5.05038 4.34056)
# Probe 145 (4.27174 5.05038 4.85121)
# Probe 146 (4.27174 5.05038 5.36187)
# Probe 147 (4.27174 5.05038 5.87252)
# Probe 148 (4.27174 5.05038 6.38318)
# Probe 149 (4.27174 5.05038 6.89383)
# Probe 150 (4.27174 5.05038 7.40448)
# Probe 151 (4.27174 5.05038 7.91514)
# Probe 152 (4.27174 5.05038 8.42579)
# Probe 153 (3.76385 5.05038 0.255327)
# Probe 154 (3.76385 5.05038 0.765981)
# Probe 155 (3.76385 5.05038 1.27664)
# Probe 156 (3.76385 5.05038 1.78729)
# Probe 157 (3.76385 5.05038 2.29794)
# Probe 158 (3.76385 5.05038 2.8086)
# Probe 159 (3.76385 5.05038 3.31925)
# Probe 160 (3.76385 5.05038 3.82991)
# Probe 161 (3.76385 5.05038 4.34056)
# Probe 162 (3.76385 5.05038 4.85121)
# Probe 163 (3.76385 5.05038 5.36187)
# Probe 164 (3.76385 5.05038 5.87252)
# Probe 165 (3.76385 5.05038 6.38318)
# Probe 166 (3.76385 5.05038 6.89383)
# Probe 167 (3.76385 5.05038 7.40448)
# Probe 168 (3.76385 5.05038 7.91514)
# Probe 169 (3.76385 5.05038 8.42579)
# Probe 170 (3.25596 5.05038 0.255327)
# Probe 171 (3.25596 5.05038 0.765981)
# Probe 172 (3.25596 5.05038 1.27664)
# Probe 173 (3.25596 5.05038 1.78729)
# Probe 174 (3.25596 5.05038 2.29794)
# Probe 175 (3.25596 5.05038 2.8086)
# Probe 176 (3.25596 5.05038 3.31925)
# Probe 177 (3.25596 5.05038 3.82991)
# Probe 178 (3.25596 5.05038 4.34056)
# Probe 179 (3.25596 5.05038 4.85121)
# Probe 180 (3.25596 5.05038 5.36187)
# Probe 181 (3.25596 5.05038 5.87252)
# Probe 182 (3.25596 5.05038 6.38318)
# Probe 183 (3.25596 5.05038 6.89383)
# Probe 184 (3.25596 5.05038 7.40448)
# Probe 185 (3.25596 5.05038 7.91514)
# Probe 186 (3.25596 5.05038 8.42579)
# Probe 187 (2.74808 5.05038 0.255327)
# Probe 188 (2.74808 5.05038 0.765981)
# Probe 189 (2.74808 5.05038 1.27664)
# Probe 190 (2.74808 5.05038 1.78729)
# Probe 191 (2.74808 5.05038 2.29794)
# Probe 192 (2.74808 5.05038 2.8086)
# Probe 193 (2.74808 5.05038 3.31925)
# Probe 194 (2.74808 5.05038 3.82991)
# Probe 195 (2.74808 5.05038 4.34056)
# Probe 196 (2.74808 5.05038 4.85121)
# Probe 197 (2.74808 5.05038 5.36187)
# Probe 198 (2.74808 5.05038 5.87252)
# Probe 199 (2.74808 5.05038 6.38318)
# Probe 200 (2.74808 5.05038 6.89383)
# Probe 201 (2.74808 5.05038 7.40448)
# Probe 202 (2.74808 5.05038 7.91514)
# Probe 203 (2.74808 5.05038 8.42579)
# Probe 204 (2.24019 5.05038 0.255327)
# Probe 205 (2.24019 5.05038 0.765981)
# Probe 206 (2.24019 5.05038 1.27664)
# Probe 207 (2.24019 5.05038 1.78729)
# Probe 208 (2.24019 5.05038 2.29794)
# Probe 209 (2.24019 5.05038 2.8086)
# Probe 210 (2.24019 5.05038 3.31925)
# Probe 211 (2.24019 5.05038 3.82991)
# Probe 212 (2.24019 5.05038 4.34056)
# Probe 213 (2.24019 5.05038 4.85121)
# Probe 214 (2.24019 5.05038 5.36187)
# Probe 215 (2.24019 5.05038 5.87252)
# Probe 216 (2.24019 5.05038 6.38318)
# Probe 217 (2.24019 5.05038 6.89383)
# Probe 218 (2.24019 5.05038 7.40448)
# Probe 219 (2.24019 5.05038 7.91514)
# Probe 220 (2.24019 5.05038 8.42579)
# Probe 221 (1.7323 5.05038 0.255327)
# Probe 222 (1.7323 5.05038 0.765981)
# Probe 223 (1.7323 5.05038 1.27664)
# Probe 224 (1.7323 5.05038 1.78729)
# Probe 225 (1.7323 5.05038 2.29794)
# Probe 226 (1.7323 5.05038 2.8086)
# Probe 227 (1.7323 5.05038 3.31925)
# Probe 228 (1.7323 5.05038 3.82991)
# Probe 229 (1.7323 5.05038 4.34056)
# Probe 230 (1.7323 5.05038 4.85121)
# Probe 231 (1.7323 5.05038 5.36187)
# Probe 232 (1.7323 5.05038 5.87252)
# Probe 233 (1.7323 5.05038 6.38318)
# Probe 234 (1.7323 5.05038 6.89383)
# Probe 235 (1.7323 5.05038 7.40448)
# Probe 236 (1.7323 5.05038 7.91514)
# Probe 237 (1.7323 5.05038 8.42579)
#       Probe             0             1             2             3             4             5             6             7             8             9            10            11            12            13            14            15            16            17            18            19            20            21            22            23            24            25            26            27            28            29            30            31            32            33            34            35            36            37            38            39            40            41            42            43            44            45            46            47            48            49            50            51            52            53            54            55            56            57            58            59            60            61            62            63            64            65            66            67            68            69            70            71            72            73            74            75            76            77            78            79            80            81            82            83            84            85            86            87            88            89            90            91            92            93            94            95            96            97            98            99           100           101           102           103           104           105           106           107           108           109           110           111           112           113           114           115           116           117           118           119           120           121           122           123           124           125           126           127           128           129           130           131           132           133           134           135           136           137           138           139           140           141           142           143           144           145           146           147           148           149           150           151           152           153           154           155           156           157           158           159           160           161           162           163           164           165           166           167           168           169           170           171           172           173           174           175           176           177           178           179           180           181           182           183           184           185           186           187           188           189           190           191           192           193           194           195           196           197           198           199           200           201           202           203           204           205           206           207           208           209           210           211           212           213           214           215           216           217           218           219           220           221           222           223           224           225           226           227           228           229           230           231           232           233           234           235           236           237
#        Time
            1          7.76       6.98875       6.97356       6.96094       6.92356       6.89745       6.83041       6.74401       6.69352       6.57757       6.43953       6.36119       6.17833       5.94075       5.76393       5.25214       5.41385       7.77069       6.99426       5.44185       5.44185        5.4105       5.35866       5.28694       5.19626       5.19626       5.08671       4.95721       4.80494       4.62501       4.40736       4.40736       5.21383       4.60183       7.79963       7.01875       5.46779       5.46779       5.43589       5.38325       5.31092       5.22048       5.22048       5.11271        4.9874       4.84286       4.67531        4.4729        4.4729       5.13438       3.94657       7.83518       7.06452       5.51533       5.51533       5.48137        5.4264       5.35223       5.26141       5.26141       5.15581       5.03644       4.90308       4.75361       4.57734       4.57734       5.26223       4.03978       7.88442       7.09634       5.51533       5.51533       5.48137        5.4264       5.35223       5.26141       5.26141       5.15581       5.03644       4.90308       4.75361       4.57734       4.57734       5.43028        4.6482       7.94911       7.17991       5.58594       5.58594       5.54794       5.48822       5.40997       5.31712       5.31712       5.21292       5.09986        4.9798       4.85429        4.7212        4.7212       5.91423       5.86706       8.06448       7.29488       5.68168       5.68168       5.63634       5.56799       5.48199        5.3841        5.3841       5.27902        5.1706       5.06247       4.95953       4.86878       4.86878       6.28583       6.19031       8.17902       7.36685       5.80644       5.80644       5.74799       5.66475        5.5654         5.458         5.458       5.34842       5.24118       5.14033       5.05077       4.97945       4.97945       4.93258       6.28543       8.32624       7.55035       5.96701       5.96701       5.88498       5.77682       5.65618       5.53352       5.53352       5.41518       5.30525       5.20705       5.12423       5.06117       5.06117        5.0209       6.47539       8.52065         7.669       5.96701       5.96701       5.88498       5.77682       5.65618       5.53352       5.53352       5.41518       5.30525       5.20705       5.12423       5.06117       5.06117        5.0209       6.53195       8.89266       7.99001       6.17483       6.17483       6.04957       5.90057       5.74818       5.60403       5.60403       5.47302       5.35724       5.25825       5.17802       5.11922       5.11922       5.08368       6.60463       9.29829       8.51139       6.45379       6.45379       6.24655       6.03074       5.83344       5.66209       5.66209         5.516        5.3928       5.29111       5.21101       5.15382       5.15382       5.12077       6.64429       9.83463       8.88705       8.59236       8.40205       7.99048       7.82014       7.52261       7.29512       7.19997       7.04375       6.91852       6.86587       6.77806       6.71409       6.69099       6.66364       6.65593        10.483       10.5709        11.228       10.7903       9.66427       8.24838         7.728       7.39749       7.27653       7.08921        6.9502       6.89378       6.80232       6.73653       6.71269       6.68191       6.67009
            2      -11.2774      -12.0523      -12.0737      -12.0888      -12.1295      -12.1571      -12.2265      -12.3142      -12.3649      -12.4801       -12.616      -12.6925      -12.8687      -13.0773      -13.2102       -13.556       -13.157      -11.2619      -12.0437      -13.6041      -13.6041      -13.6375      -13.6919      -13.7657      -13.8573      -13.8573      -13.9665       -14.095      -14.2465      -14.4264      -14.6216      -14.6216      -13.6317      -13.9132      -11.2281      -12.0145      -13.5784      -13.5784      -13.6125      -13.6679      -13.7425      -13.8339      -13.8339      -13.9413       -14.066       -14.212      -14.3875      -14.5855      -14.5855      -13.8049      -14.6054       -11.191      -11.9679       -13.534       -13.534      -13.5708      -13.6293      -13.7064      -13.7983      -13.7983      -13.9033      -14.0215      -14.1561      -14.3142      -14.4936      -14.4936      -13.7362      -14.5806      -11.1424      -11.9368       -13.534       -13.534      -13.5708      -13.6293      -13.7064      -13.7983      -13.7983      -13.9033      -14.0215      -14.1561      -14.3142      -14.4936      -14.4936      -13.5789      -14.0649      -11.0807      -11.8579      -13.4704      -13.4704       -13.512      -13.5764      -13.6584      -13.7524      -13.7524      -13.8553      -13.9657       -14.084      -14.2121      -14.3449      -14.3449      -13.0988      -12.9493      -10.9737      -11.7519      -13.3855      -13.3855      -13.4352      -13.5098      -13.6005      -13.6993      -13.6993      -13.8018      -13.9053      -14.0086      -14.1086      -14.1969      -14.1969      -12.7738       -12.863      -10.8704      -11.6868      -13.2751      -13.2751      -13.3391      -13.4309      -13.5358       -13.643       -13.643      -13.7477      -13.8475       -13.941       -14.026       -14.097       -14.097      -14.1478      -12.8005      -10.7423       -11.523       -13.133       -13.133      -13.2239      -13.3445      -13.4702      -13.5892      -13.5892      -13.6984      -13.7971      -13.8851      -13.9615      -14.0237      -14.0237      -14.0687      -12.6343      -10.5821      -11.4193       -13.133       -13.133      -13.2239      -13.3445      -13.4702      -13.5892      -13.5892      -13.6984      -13.7971      -13.8851      -13.9615      -14.0237      -14.0237      -14.0687      -12.5794      -10.3017      -11.1567      -12.9583      -12.9583      -13.1003       -13.264      -13.4148      -13.5461      -13.5461      -13.6598      -13.7586      -13.8438      -13.9153      -13.9713      -13.9713      -14.0095      -12.5053      -10.0245      -10.7781      -12.7317      -12.7317      -12.9769      -13.2033      -13.3786      -13.5191      -13.5191      -13.6358      -13.7349       -13.819      -13.8883      -13.9414      -13.9414      -13.9757       -12.463      -9.68319      -10.5369      -10.6905      -10.8779      -11.3399      -11.4953      -11.7332      -11.9084      -11.9834      -12.1055      -12.2059       -12.249      -12.3241      -12.3826      -12.4055      -12.4368      -12.4502      -9.28719      -9.22362      -8.32459      -8.78238      -9.98367      -11.2814       -11.579      -11.8085      -11.9001      -12.0487      -12.1638      -12.2118      -12.2923       -12.354      -12.3782      -12.4141      -12.4317
            3      -60.3808      -61.1482      -61.1522      -61.1557      -61.1631      -61.1691      -61.1852      -61.2052      -61.2162      -61.2401      -61.2658      -61.2789      -61.3065      -61.3142      -61.2911       -61.185      -60.2583      -60.3787      -61.1476      -62.6882      -62.6882      -62.6929       -62.705      -62.7228      -62.7443      -62.7443      -62.7683       -62.795      -62.8255      -62.8618      -62.8707      -62.8707      -61.2413      -60.3821      -60.3751      -61.1447      -62.6893      -62.6893       -62.694      -62.7071      -62.7262      -62.7483      -62.7483      -62.7726      -62.7996      -62.8326      -62.8788      -62.9112      -62.9112      -61.4005      -60.5854      -60.3722       -61.142      -62.6906      -62.6906      -62.6957      -62.7103       -62.731      -62.7539      -62.7539      -62.7775      -62.8027      -62.8333      -62.8773      -62.9171      -62.9171       -61.474      -60.6731      -60.3694      -61.1406      -62.6906      -62.6906      -62.6957      -62.7103       -62.731      -62.7539      -62.7539      -62.7775      -62.8027      -62.8333      -62.8773      -62.9171      -62.9171      -61.4621      -60.7019       -60.367      -61.1386      -62.6932      -62.6932      -62.6992      -62.7163      -62.7391      -62.7623      -62.7623       -62.784      -62.8049      -62.8275      -62.8563       -62.881       -62.881      -61.3504      -60.5426      -60.3645      -61.1368       -62.697       -62.697       -62.705       -62.726      -62.7515      -62.7745      -62.7745      -62.7932      -62.8084      -62.8221      -62.8362      -62.8459      -62.8459       -61.316      -61.3268      -60.3648       -61.137      -62.7018      -62.7018      -62.7146      -62.7426      -62.7713      -62.7926      -62.7926      -62.8066      -62.8156      -62.8222      -62.8291      -62.8357      -62.8357      -62.8369       -61.328      -60.3708      -61.1403      -62.7111      -62.7111      -62.7364      -62.7754       -62.805      -62.8204      -62.8204      -62.8261      -62.8269      -62.8263      -62.8271        -62.83        -62.83      -62.8319      -61.3125      -60.3911      -61.1465      -62.7111      -62.7111      -62.7364      -62.7754       -62.805      -62.8204      -62.8204      -62.8261      -62.8269      -62.8263      -62.8271        -62.83        -62.83      -62.8319       -61.305      -60.4674       -61.194      -62.7475      -62.7475      -62.8002      -62.8474      -62.8649      -62.8631      -62.8631      -62.8537      -62.8432      -62.8345      -62.8292      -62.8274      -62.8274      -62.8267      -61.2972      -60.5802      -61.3412       -62.831       -62.831      -62.9304      -62.9694      -62.9493      -62.9164      -62.9164      -62.8862      -62.8627      -62.8463      -62.8363      -62.8313      -62.8313      -62.8287       -61.296      -60.7366      -61.4824      -61.4295      -61.4768      -61.6037      -61.5793      -61.4924      -61.4229      -61.3992      -61.3596      -61.3332      -61.3232      -61.3106       -61.304      -61.3025      -61.3005      -61.2972      -60.9074      -61.1008      -60.9304      -61.0918      -61.2718      -61.8973      -61.5702       -61.431      -61.3938      -61.3493       -61.325      -61.3169      -61.3064      -61.3014      -61.3003      -61.2997      -61.2979
            4      -80.4275      -81.1864      -81.1738      -81.1674      -81.1467      -81.1345      -81.1063      -81.0718      -81.0515      -81.0046      -80.9468      -80.9128       -80.833      -80.7152      -80.6103      -80.2932      -79.1379       -80.437      -81.1924      -82.7129      -82.7129      -82.6942      -82.6712      -82.6431      -82.6085      -82.6085       -82.566      -82.5147      -82.4538      -82.3858      -82.2816      -82.2816      -80.3284      -78.8865      -80.4577      -81.2101      -82.7324      -82.7324      -82.7132       -82.691      -82.6645      -82.6314      -82.6314      -82.5908      -82.5429      -82.4892       -82.438       -82.364       -82.364       -80.448      -78.8058      -80.4804      -81.2396      -82.7645      -82.7645      -82.7438      -82.7218      -82.6962       -82.664       -82.664      -82.6246      -82.5789        -82.53      -82.4875       -82.435       -82.435      -80.5927      -78.9334      -80.5107      -81.2594      -82.7645      -82.7645      -82.7438      -82.7218      -82.6962       -82.664       -82.664      -82.6246      -82.5789        -82.53      -82.4875       -82.435       -82.435      -80.6694       -79.234      -80.5499      -81.3103      -82.8107      -82.8107      -82.7881      -82.7656      -82.7397      -82.7067      -82.7067      -82.6663      -82.6201      -82.5715      -82.5274      -82.4808      -82.4808      -80.7937      -79.6305      -80.6186      -81.3785      -82.8716      -82.8716      -82.8469      -82.8235      -82.7956      -82.7588      -82.7588      -82.7143       -82.665      -82.6146      -82.5682      -82.5263      -82.5263      -80.9265      -80.8774       -80.687      -81.4213      -82.9483      -82.9483      -82.9224      -82.8982       -82.865      -82.8201      -82.8201      -82.7675      -82.7123      -82.6588      -82.6117      -82.5735      -82.5735      -82.5382      -80.8923       -80.777      -81.5308      -83.0478      -83.0478      -83.0254       -82.999      -82.9527      -82.8913      -82.8913      -82.8247      -82.7595      -82.7001      -82.6498      -82.6108      -82.6108      -82.5795      -80.9787      -80.9033      -81.6042      -83.0478      -83.0478      -83.0254       -82.999      -82.9527      -82.8913      -82.8913      -82.8247      -82.7595      -82.7001      -82.6498      -82.6108      -82.6108      -82.5795      -81.0079      -81.1709      -81.8279      -83.2004      -83.2004      -83.1879      -83.1453      -83.0653      -82.9733      -82.9733      -82.8847      -82.8053      -82.7374      -82.6823       -82.641       -82.641      -82.6112      -81.0528      -81.4765      -82.2444      -83.4571      -83.4571      -83.4362      -83.3358      -83.1914       -83.056       -83.056      -82.9408      -82.8458      -82.7691      -82.7093      -82.6657      -82.6657      -82.6367      -81.0835      -81.8797      -82.5763      -82.4471      -82.3912      -82.2337      -82.0887      -81.8266      -81.6266      -81.5477      -81.4167      -81.3167      -81.2754      -81.2085      -81.1592      -81.1406      -81.1134      -81.0951      -82.3469      -82.6475      -83.2055      -83.0804      -82.3545      -82.5898      -82.0317      -81.7173      -81.6092      -81.4514      -81.3419      -81.2989      -81.2301      -81.1798      -81.1604      -81.1309      -81.1125
            5       -62.986      -63.7432      -63.7295      -63.7235      -63.7036      -63.6912      -63.6624      -63.6278       -63.608      -63.5637      -63.5112      -63.4811      -63.4133      -63.3306      -63.2675      -63.0975      -62.1252      -62.9957      -63.7484      -65.2664      -65.2664      -65.2493      -65.2264      -65.1977      -65.1629      -65.1629      -65.1216      -65.0731      -65.0162      -64.9571       -64.887       -64.887      -63.1204      -61.9906      -63.0137       -63.763      -65.2807      -65.2807      -65.2632      -65.2412      -65.2138      -65.1802      -65.1802      -65.1403       -65.094       -65.042      -64.9941      -64.9444      -64.9444      -63.2023      -61.9844      -63.0319      -63.7861      -65.3042      -65.3042      -65.2856      -65.2638      -65.2371      -65.2042      -65.2042      -65.1653      -65.1214      -65.0742      -65.0342      -65.0002      -65.0002      -63.3018      -62.0572      -63.0553      -63.8012      -65.3042      -65.3042      -65.2856      -65.2638      -65.2371      -65.2042      -65.2042      -65.1653      -65.1214      -65.0742      -65.0342      -65.0002      -65.0002      -63.3527      -62.2089      -63.0847      -63.8391       -65.338       -65.338      -65.3183      -65.2961      -65.2688      -65.2348      -65.2348      -65.1954      -65.1522      -65.1075      -65.0687      -65.0386      -65.0386       -63.429      -62.4335      -63.1351      -63.8887      -65.3814      -65.3814      -65.3611      -65.3382      -65.3083      -65.2707      -65.2707      -65.2285      -65.1843      -65.1408      -65.1029      -65.0749      -65.0749      -63.5014      -63.4594      -63.1836      -63.9191      -65.4328      -65.4328      -65.4135      -65.3898      -65.3543      -65.3099      -65.3099      -65.2624      -65.2157      -65.1721      -65.1349      -65.1068      -65.1068      -65.0808      -63.4429      -63.2444      -63.9936      -65.4928      -65.4928      -65.4791      -65.4528      -65.4061      -65.3503      -65.3503      -65.2951      -65.2441      -65.1989      -65.1607      -65.1309      -65.1309      -65.1057      -63.5037       -63.324      -64.0407      -65.4928      -65.4928      -65.4791      -65.4528      -65.4061      -65.3503      -65.3503      -65.2951      -65.2441      -65.1989      -65.1607      -65.1309      -65.1309      -65.1057      -63.5277      -63.4793      -64.1739      -65.5777      -65.5777      -65.5732      -65.5333      -65.4631      -65.3905      -65.3905      -65.3256      -65.2694      -65.2215      -65.1818      -65.1512      -65.1512       -65.128      -63.5662      -63.6471      -64.4135       -65.741       -65.741      -65.7184      -65.6292      -65.5204      -65.4283      -65.4283      -65.3533      -65.2914      -65.2403      -65.1988      -65.1673      -65.1673      -65.1455      -63.5922      -63.8756      -64.6072      -64.5827      -64.5377      -64.3594      -64.2374      -64.0739      -63.9557      -63.9082      -63.8265      -63.7623      -63.7351      -63.6891      -63.6529      -63.6386      -63.6172      -63.6015      -64.1497      -64.3069      -64.9251       -64.781      -64.0207      -64.4273      -64.1799      -64.0233      -63.9616      -63.8648      -63.7928      -63.7632       -63.713      -63.6731      -63.6567       -63.631      -63.6157