/*--------------------------------*- C++ -*----------------------------------*\
| =========                 |                                                 |
| \\      /  F ield         | OpenFOAM: The Open Source CFD Toolbox           |
|  \\    /   O peration     | Version:  2.4.0                                 |
|   \\  /    A nd           | Web:      www.OpenFOAM.org                      |
|    \\/     M anipulation  |                                                 |
\*---------------------------------------------------------------------------*/
FoamFile
{
    version     2.0;
    format      ascii;
    class       volScalarField;
    location    "80";
    object      nut;
}
// * * * * * * * * * * * * * * * * * * * * * * * * * * * * * * * * * * * * * //

dimensions      [0 2 -1 0 0 0 0];

internalField   nonuniform List<scalar> 
43096
(
4.36988e-05
0.000105644
0.000117608
0.000107926
9.23267e-05
9.31497e-05
6.22349e-05
4.75344e-05
0.000123557
0.000363246
0.000408946
0.000368542
0.000309323
0.000260423
0.000225681
0.000195151
0.000177514
0.000696118
0.000722359
0.000592125
0.000458932
0.000359807
0.000307828
0.000305428
0.000375923
0.00104282
0.000993258
0.000792549
0.000597024
0.000445102
0.00036387
0.000376493
0.000329855
0.00118159
0.00112564
0.000897744
0.000669172
0.000487917
0.000386641
0.000397595
0.000383951
0.00118068
0.00112237
0.000888302
0.000655999
0.000474934
0.000374204
0.000387799
0.000317623
0.00104892
0.000978531
0.000756972
0.000554655
0.000404222
0.00032683
0.000342612
0.000259751
0.000752406
0.000703347
0.000536774
0.000393224
0.000295944
0.000247407
0.000243813
7.92339e-05
0.000318915
0.000363417
0.000343304
0.000303041
0.000260676
0.000219952
0.000180829
0.00041279
0.0246389
0.026296
0.0247603
0.0215498
0.0179215
0.0132454
0.00839787
0.00995659
0.0489984
0.0424459
0.0359631
0.0291498
0.0239511
0.0188623
0.0167516
0.014941
0.0635329
0.0537151
0.0440152
0.0351164
0.0285874
0.0231707
0.0241714
0.0142116
0.066151
0.0571222
0.0467259
0.0367957
0.0296641
0.0240853
0.0260721
0.0140912
0.0640342
0.0542013
0.0438199
0.0342918
0.0274565
0.0220468
0.0252809
0.0146925
0.0510304
0.0434917
0.0345288
0.0268046
0.0213705
0.0165628
0.0204253
0.00223116
0.031235
0.0296468
0.0242279
0.0187639
0.0148363
0.0112638
0.00972736
6.23698e-05
0.000329972
0.000388072
0.000368409
0.000326042
0.00028102
0.000238495
0.000200071
0.000435831
0.024637
0.0262934
0.0247572
0.0215461
0.0179197
0.0132437
0.00942989
0.0142998
0.0489972
0.0424442
0.0359603
0.0291459
0.0239477
0.0188573
0.0207654
0.0899427
0.0635311
0.0537133
0.0440131
0.035113
0.0285834
0.023164
0.0325055
0.0899812
0.0661491
0.0571202
0.0467238
0.0367924
0.0296602
0.0240802
0.0350786
0.089982
0.0640338
0.0542
0.0438177
0.0342883
0.0274527
0.0220403
0.034146
0.0899249
0.0510301
0.0434902
0.0345258
0.0268008
0.0213677
0.0165587
0.0275891
0.00313009
0.0340118
0.031877
0.0261735
0.0204264
0.0160939
0.0122826
0.0112315
7.77376e-05
0.000310555
0.000353384
0.000334347
0.000295127
0.000253674
0.000214162
0.000174914
0.000401861
0.0154662
0.0175449
0.0165352
0.0142984
0.0121337
0.00953895
0.00662181
0.00215048
0.0301679
0.0298396
0.0255869
0.0203769
0.0166177
0.0135097
0.0114483
0.00326746
0.0439276
0.0407653
0.0334427
0.0260369
0.0203254
0.0166312
0.01502
0.0033072
0.0482973
0.0460888
0.0371733
0.028354
0.0220634
0.0178029
0.0161422
0.0033088
0.0474592
0.044547
0.0356501
0.026923
0.0208263
0.0168829
0.0154655
0.00325861
0.0401501
0.0366587
0.0290115
0.0217341
0.0169526
0.0137812
0.0125066
0.00174499
0.025296
0.0244061
0.019647
0.014963
0.0116839
0.00920241
0.00733657
0.000101325
0.000117592
0.000323761
7.78087e-05
0.000297877
0.000373152
0.0087627
0.000117677
0.000335855
0.000378828
0.000310664
0.000353037
0.0110467
0.0123895
0.000131126
0.000378142
0.000351658
0.000353479
0.000339168
0.0131547
0.013142
0.000113109
0.000344527
0.000299694
0.000334441
0.000301199
0.0127894
0.0121267
7.97326e-05
0.000292304
0.000253649
0.000295211
0.000259641
0.0113713
0.0105551
6.37999e-05
0.000247797
0.00021874
0.000253748
0.000219971
0.00964944
0.00865652
4.96919e-05
0.000214055
0.000187854
0.000214232
0.000182314
0.00748713
0.00641133
1.58187e-05
0.000181346
4.12637e-05
0.000174966
4.35792e-05
0.00495761
0.000181316
0.000349067
0.000169108
0.000604966
0.000401772
0.0128727
0.00154989
0.0185186
0.000410187
0.000631451
0.000684583
0.0154701
0.016818
0.0211001
0.0225727
0.000376642
0.000672102
0.000581884
0.017548
0.0173713
0.0226854
0.0223046
0.000317508
0.000561001
0.000456154
0.0165381
0.0155684
0.0203112
0.0191087
0.000266584
0.000439251
0.000358647
0.0143008
0.0133017
0.0168804
0.0157688
0.000230219
0.000347681
0.000303494
0.0121349
0.0110617
0.0142583
0.0132074
0.000200988
0.00029887
0.000292623
0.00953953
0.00835528
0.0115006
0.010351
4.8088e-05
0.000292218
8.79249e-05
0.00662266
0.000201321
0.0088581
0.000520525
0.000667464
0.000349447
0.000990687
0.00215057
0.0285236
0.00324556
0.0367059
0.000738503
0.00100624
0.000987131
0.0301707
0.0316661
0.0381809
0.0385815
0.000614659
0.000959117
0.000797059
0.0298428
0.0287189
0.0355729
0.0333665
0.000476787
0.000767053
0.000604166
0.0255903
0.0231392
0.0294057
0.026589
0.000371345
0.000580698
0.000451508
0.0203799
0.0183805
0.0230149
0.0207418
0.000312268
0.000435923
0.000363779
0.0166203
0.0152923
0.0185705
0.0170587
0.000304427
0.000358608
0.000364658
0.0135107
0.0124731
0.0153395
0.0143271
9.27495e-05
0.000370307
0.000116786
0.0114492
0.000732181
0.0135349
0.00117743
0.0010264
0.000331741
0.00115301
0.00326755
0.0417651
0.00330248
0.0441343
0.00102191
0.00117363
0.00114871
0.0439313
0.0440464
0.0470411
0.0473474
0.000822533
0.0011167
0.00092147
0.0407686
0.0376973
0.0441737
0.0405417
0.000620875
0.000890345
0.000691246
0.0334467
0.0297257
0.0357292
0.0316615
0.000461236
0.000664146
0.000503729
0.0260411
0.0228293
0.0274082
0.0242118
0.000369166
0.000485345
0.000392528
0.020329
0.0185922
0.0215331
0.0195344
0.000370135
0.000385815
0.000389972
0.016633
0.0157359
0.0175473
0.0166518
0.000118677
0.000396945
0.000124462
0.0150206
0.00119834
0.0158557
0.00125455
0.00115996
0.00037857
0.0011609
0.00330736
0.044954
0.00330977
0.0449334
0.00115767
0.0011844
0.00116173
0.0483019
0.0488773
0.0483813
0.0489855
0.000928823
0.00112924
0.000927914
0.0460921
0.0420655
0.0461652
0.0421046
0.000696412
0.000895846
0.000691263
0.0371767
0.0327168
0.0371529
0.0326449
0.00050657
0.000663148
0.000499588
0.0283584
0.0248411
0.0282484
0.0246799
0.000393415
0.000480516
0.000385245
0.0220673
0.0198982
0.0219173
0.0197217
0.000390175
0.000378301
0.000383496
0.0178051
0.0168621
0.0176026
0.0166628
0.000124433
0.000390902
0.000119883
0.0161442
0.001256
0.0160248
0.00125497
0.0011579
0.000322861
0.00106352
0.00330869
0.0443007
0.0032769
0.0423214
0.00115517
0.00107985
0.00104088
0.0474604
0.0478044
0.0448516
0.0449333
0.000920669
0.00100942
0.00081813
0.0445496
0.0407387
0.0414174
0.037995
0.000684313
0.000783439
0.000600443
0.0356538
0.0314277
0.0333065
0.029288
0.000493843
0.000574397
0.000434536
0.0269267
0.023655
0.0252683
0.0219414
0.000380822
0.000417407
0.000341505
0.0208301
0.0188697
0.0192493
0.0175347
0.000380086
0.000335916
0.00034498
0.0168842
0.0160638
0.0155446
0.0147129
0.000118364
0.000352379
0.000106667
0.0154667
0.00125134
0.0143515
0.00119018
0.00103427
0.00028618
0.00078947
0.00325868
0.0382315
0.00226382
0.0317878
0.00100978
0.000807112
0.000772929
0.040151
0.0401294
0.0335485
0.0339676
0.000791957
0.000749457
0.000597156
0.0366612
0.0336519
0.0312964
0.0287689
0.000580846
0.000570463
0.000435809
0.0290147
0.0257154
0.0249873
0.0219315
0.000420957
0.000416248
0.000323471
0.0217372
0.0193406
0.0188583
0.0166418
0.000332101
0.000311488
0.000264369
0.0169551
0.0154797
0.0147429
0.0133644
0.000335336
0.000259828
0.00025851
0.0137817
0.0127776
0.0116757
0.0107422
0.0001034
0.00026043
7.17533e-05
0.0125099
0.00116603
0.0100989
0.000689427
0.000735713
5.23198e-05
0.000195141
0.00174503
0.0224864
0.000195308
0.000687829
0.000724476
0.000197924
0.000187298
0.0252973
0.0257948
0.000702815
0.000676854
0.000561651
0.000182785
0.000146562
0.0244086
0.0223381
0.00065962
0.000534551
0.000411651
0.000141433
0.000109198
0.01965
0.0172146
0.000514154
0.000402709
0.000307223
0.000105118
8.12045e-05
0.0149653
0.0131773
0.000386597
0.000307758
0.00025176
7.8381e-05
6.35421e-05
0.0116855
0.0104704
0.000296814
0.000251909
0.000243186
6.19064e-05
5.51609e-05
0.00920345
0.00830812
0.00024633
0.000240342
6.57004e-05
5.40847e-05
1.86568e-05
0.00733943
0.000454201
0.000240183
6.42657e-05
0.000305366
0.000382755
0.00984344
6.25061e-05
0.000311491
0.000391876
0.010142
0.000362841
0.0127485
0.0142489
0.000329966
0.000387206
0.013623
0.015301
0.000348009
0.0158905
0.0158299
0.000388067
0.000373309
0.0171062
0.0171378
0.000308992
0.0158749
0.0151122
0.000368396
0.000332421
0.0172571
0.0165159
0.000266553
0.014485
0.0135168
0.000326022
0.000287298
0.0158154
0.0147873
0.000225896
0.0124089
0.0110605
0.000280995
0.000244718
0.0134957
0.0120115
0.000188018
0.00912716
0.00765256
0.000238464
0.000207482
0.00991078
0.00836389
4.51073e-05
0.00609444
0.000191059
0.000200029
4.93264e-05
0.00669117
0.00022152
0.015618
0.00207655
0.0262056
0.000435805
0.0170789
0.00302562
0.0312241
0.000212551
0.0115469
0.000757268
0.00942926
0.000250242
0.0131772
0.00116896
0.0451443
0.0149617
0.0570005
0.0142998
0.0536768
0.0899213
0.0715661
0.00332421
0.0214219
0.00920701
0.0207674
0.00887886
0.0286422
0.0491602
0.0614718
0.0142697
0.0627892
0.0899428
0.07749
0.089981
0.0787911
0.009248
0.025617
0.00979557
0.0325067
0.0499163
0.0344784
0.0545248
0.0631905
0.0140269
0.0631926
0.0899812
0.0790267
0.0899817
0.0790265
0.00977645
0.0259837
0.00979607
0.0350796
0.0545658
0.0349908
0.0545304
0.0629048
0.0146702
0.0617228
0.089982
0.0788469
0.0899441
0.0776748
0.00977865
0.0235955
0.00925463
0.0341466
0.0544268
0.031898
0.0496197
0.0577607
0.00995471
0.0470153
0.0899249
0.0721615
0.0141299
0.0552126
0.00917251
0.0152344
0.0032281
0.0275879
0.0487802
0.0191333
0.00871901
0.0293269
0.000206188
0.000722877
0.0031301
0.0329684
0.000211647
0.000807496
0.0315798
0.000738425
0.000705333
0.0340119
0.0339625
0.000819365
0.000766183
0.0275107
0.000686611
0.000552985
0.0318773
0.0296017
0.000743487
0.000595347
0.0215011
0.000531778
0.000415788
0.0261743
0.0233781
0.00057196
0.0004499
0.0167147
0.000399264
0.000318006
0.0204269
0.0182415
0.000431897
0.000345658
0.0132539
0.000306753
0.000261165
0.0160946
0.0143503
0.00033334
0.000287663
0.010371
0.000255347
0.000253089
0.0122815
0.011502
0.000282376
0.00029639
0.000691175
0.000254297
6.88119e-05
0.0112277
0.00111181
0.000302249
8.63411e-05
0.000311483
0.000391905
0.0101421
7.9276e-05
0.000305292
0.000382847
0.00984248
0.00038718
0.0136223
0.0153001
0.000318809
0.000362767
0.012746
0.0142459
0.000373278
0.0171051
0.0171367
0.000363308
0.000347936
0.0158873
0.0158265
0.000332387
0.0172558
0.0165147
0.000343188
0.000308921
0.0158715
0.0151086
0.000287262
0.015814
0.0147858
0.00030292
0.000266486
0.0144815
0.0135134
0.00024468
0.0134948
0.0120113
0.000260555
0.000225828
0.012407
0.0110596
0.000207432
0.00991091
0.0083647
0.000219822
0.000187958
0.00912579
0.00765026
4.93051e-05
0.00669445
0.000221435
0.000180694
4.50951e-05
0.00609011
0.000190957
0.0170784
0.00302562
0.0312233
0.000412849
0.015616
0.00207649
0.0262037
0.000250149
0.0131716
0.00116824
0.00839264
0.000212423
0.0115418
0.000756674
0.0536762
0.0899214
0.0715654
0.00995546
0.0451433
0.014961
0.056999
0.00887182
0.0286312
0.0491315
0.0167375
0.00332323
0.0214036
0.00920534
0.0774888
0.089981
0.0787897
0.0149394
0.06147
0.0142692
0.0627869
0.0498902
0.034467
0.0544969
0.0241488
0.00924596
0.0255949
0.009795
0.0790252
0.0899817
0.0790255
0.0142101
0.0631883
0.0140257
0.0631918
0.0545407
0.0349797
0.0545024
0.0260461
0.00977539
0.0259615
0.00979543
0.0788462
0.0899441
0.0776744
0.0140901
0.062905
0.0146689
0.0617229
0.0544016
0.031888
0.0495904
0.025255
0.00977741
0.0235764
0.00925324
0.0721611
0.0141302
0.0552126
0.014693
0.0577604
0.00995481
0.0470151
0.0487541
0.0191294
0.00871129
0.0204035
0.00917055
0.0152232
0.0032273
0.0329687
0.000211993
0.000807509
0.00223113
0.0293271
0.000206202
0.000722872
0.0339622
0.000819373
0.00076618
0.0312345
0.0315787
0.00073841
0.000705288
0.0296007
0.000743483
0.000595337
0.0296449
0.0275083
0.000686561
0.000552917
0.0233766
0.00057195
0.000449884
0.024225
0.021498
0.000531707
0.000415717
0.0182397
0.000431881
0.00034563
0.0187605
0.0167114
0.000399191
0.000317939
0.01435
0.000333313
0.000287609
0.0148328
0.0132512
0.000306682
0.000261092
0.0115035
0.000282323
0.00029629
0.0112603
0.0103677
0.000255269
0.000252928
0.00111111
0.000302165
8.62876e-05
0.00971943
0.000690564
0.000254104
6.87612e-05
0.000297747
0.000373243
0.00875839
4.07989e-05
0.000104955
0.000117927
0.000323532
0.000352906
0.0110424
0.0123855
0.000130396
0.000120637
0.000335675
0.000378745
0.000339029
0.0131509
0.0131383
0.000143917
0.000109004
0.000378055
0.000351605
0.00030106
0.0127858
0.0121232
0.000107334
9.60733e-05
0.000344477
0.000299659
0.000259507
0.0113679
0.0105522
0.000112183
7.79874e-05
0.00029227
0.000253627
0.000219837
0.00964739
0.00865488
7.63409e-05
6.46679e-05
0.000247774
0.000218717
0.000182181
0.00748599
0.00641006
7.52736e-05
6.09156e-05
0.000214038
0.000187821
4.35382e-05
0.00495675
0.000181112
4.72728e-05
1.62135e-05
0.000181309
4.12684e-05
0.012867
0.00154988
0.0185146
0.00015068
0.00034887
0.000169248
0.000604863
0.0168146
0.0210969
0.0225696
0.000363063
0.000410103
0.000631361
0.000684492
0.0173678
0.0226825
0.0223012
0.000408833
0.000376563
0.000672019
0.000581787
0.0155655
0.0203082
0.0191051
0.000368435
0.000317452
0.000560906
0.000456063
0.0132995
0.0168778
0.0157662
0.000309225
0.000266546
0.000439163
0.000358581
0.0110604
0.0142565
0.013205
0.000260323
0.000230191
0.000347622
0.000303454
0.00835479
0.0114993
0.0103513
0.000225576
0.000200943
0.000298836
0.000292536
0.000201088
0.00885623
0.000519642
0.000195002
4.80934e-05
0.000292128
8.78049e-05
0.0285208
0.00324551
0.0367031
0.000177394
0.000667373
0.000356484
0.000990613
0.0316628
0.0381779
0.0385782
0.000696031
0.000738417
0.00100614
0.000987057
0.0287153
0.0355697
0.033363
0.000722264
0.00061455
0.000959023
0.000796936
0.023136
0.0294027
0.0265854
0.000591996
0.000476681
0.000766923
0.000604033
0.0183773
0.0230115
0.020738
0.000458804
0.000371264
0.000580561
0.000451389
0.0152898
0.0185668
0.0170555
0.000359681
0.000312223
0.000435805
0.000363701
0.0124723
0.015337
0.0143261
0.000307674
0.000304328
0.000358541
0.000364508
0.000731244
0.0135276
0.00117598
0.000305119
9.26245e-05
0.000370137
0.000116583
0.0417615
0.00330236
0.0441295
0.000373085
0.00102632
0.000331832
0.00115283
0.0440428
0.0470366
0.0473434
0.00104271
0.00102184
0.00117343
0.00114862
0.0376939
0.0441703
0.0405384
0.000993146
0.000822412
0.00111659
0.000921339
0.0297222
0.0357256
0.0316577
0.0007924
0.000620743
0.000890208
0.000691116
0.0228254
0.0274045
0.0242078
0.000596867
0.000461118
0.00066401
0.000503597
0.0185885
0.0215287
0.0195304
0.000444948
0.000369088
0.000485214
0.000392436
0.0157345
0.0175432
0.0166463
0.000363688
0.000369992
0.000385733
0.000389781
0.00119693
0.0158459
0.00125321
0.000376071
0.000118481
0.000396722
0.000124245
0.0449486
0.00330986
0.0449301
0.000330071
0.00115974
0.000303428
0.00116085
0.0488732
0.0483781
0.0489822
0.00118135
0.00115758
0.0011843
0.00116165
0.0420623
0.0461621
0.0421016
0.00112551
0.000928693
0.00112914
0.000927782
0.0327126
0.0371494
0.0326408
0.000897588
0.000696283
0.000895709
0.000691118
0.0248371
0.028244
0.0246761
0.000669018
0.00050644
0.000662998
0.000499445
0.019894
0.0219131
0.0197177
0.000487756
0.000393329
0.000480374
0.000385146
0.0168582
0.0175992
0.0166604
0.000386459
0.000390002
0.000378215
0.000383293
0.00125471
0.0160152
0.00125363
0.000397117
0.000124228
0.000390652
0.000119664
0.0443001
0.00327686
0.0423207
0.000315833
0.00115793
0.00032308
0.00106355
0.0478021
0.0448507
0.0449316
0.00118063
0.00115511
0.00107988
0.00104082
0.0407357
0.041415
0.037992
0.00112226
0.000920537
0.00100937
0.000818009
0.0314237
0.0333024
0.0292845
0.000888146
0.000684168
0.000783309
0.000600299
0.0236506
0.025264
0.021938
0.00065583
0.000493703
0.000574248
0.000434407
0.0188662
0.0192457
0.0175318
0.000474764
0.000380731
0.000417279
0.000341424
0.016063
0.0155422
0.0147113
0.000374022
0.000379912
0.000335834
0.00034477
0.00125004
0.0143428
0.00118874
0.000387334
0.000118159
0.000352117
0.000106454
0.0382307
0.00226379
0.0317871
0.000317671
0.00103429
0.000232242
0.000789456
0.0401276
0.0335473
0.0339655
0.00104892
0.0010097
0.000807078
0.000772825
0.0336486
0.0312936
0.0287656
0.000978439
0.000791845
0.000749355
0.000597025
0.0257116
0.0249837
0.0219283
0.000756838
0.000580714
0.000570333
0.000435693
0.0193372
0.0188552
0.0166394
0.0005545
0.00042084
0.000416138
0.000323391
0.0154774
0.0147406
0.0133624
0.000404071
0.000332024
0.000311415
0.000264322
0.0127775
0.0116742
0.0107405
0.000326647
0.000335154
0.000259783
0.000258337
0.00116464
0.0100925
0.000688511
0.00034215
0.00010322
0.00026022
7.16242e-05
0.0224857
0.000195324
0.000687815
0.000217188
0.000735666
5.18042e-05
0.0001951
0.0257927
0.000702795
0.000676791
0.000752358
0.000724373
0.000197906
0.00018722
0.022335
0.000659554
0.000534477
0.000703228
0.000561523
0.000182736
0.000146485
0.0172115
0.000514061
0.000402607
0.000536635
0.000411544
0.000141376
0.000109129
0.0131746
0.000386496
0.000307641
0.000393098
0.000307154
0.000105061
8.11481e-05
0.010468
0.000296707
0.000251755
0.000295835
0.000251723
7.83331e-05
6.34922e-05
0.00830628
0.000246169
0.000240036
0.000247271
0.00024304
6.18603e-05
5.50986e-05
0.00045335
0.00023987
6.41457e-05
0.000243455
6.56034e-05
5.40308e-05
1.83099e-05
0.00211265
4.38739e-05
8.62277e-05
8.44541e-05
0.000175078
0.000228937
0.000168457
0.00472006
0.00011426
0.000250326
0.000259177
0.000282166
0.00428081
0.000268199
0.0054932
0.000116095
0.000276045
0.000295549
0.000293735
0.005413
0.000272425
0.00525151
0.000103191
0.000257277
0.000279726
0.000268374
0.00534418
0.000246326
0.00464758
8.68111e-05
0.000225868
0.000246318
0.000233289
0.00478769
0.00021436
0.00394618
7.07187e-05
0.000194726
0.000210833
0.000198571
0.00410585
0.000184184
0.00318398
6.96631e-05
0.000165598
0.000177438
0.00016636
0.00335601
0.000155588
0.00206512
4.91552e-05
0.000132001
0.000141263
0.000118932
0.00243422
0.000109977
0.00652192
0.000267569
0.000141757
0.00033221
0.00558905
0.000391039
0.000321963
0.0110217
0.000395931
0.000452106
0.0088108
0.00946821
0.0102529
0.000495024
0.0115994
0.000401124
0.000504789
0.0100286
0.0100826
0.0115774
0.000492514
0.0100286
0.000347697
0.00044339
0.00915443
0.0089287
0.0102744
0.000414788
0.0083122
0.000290299
0.000361506
0.00780333
0.0075605
0.00858346
0.000335961
0.00703798
0.00024688
0.000297026
0.00664624
0.00643302
0.00727302
0.000280705
0.00591183
0.000215989
0.000258305
0.00555849
0.00534301
0.00614538
0.000250152
0.00425038
0.000172055
0.000236311
0.00422661
0.00368092
0.00482156
0.000216332
0.0144863
0.00049417
0.000219031
0.00064551
0.0118581
0.000894091
0.000650369
0.0211193
0.000752188
0.000847441
0.0176118
0.0187372
0.0200184
0.000886844
0.0195941
0.000681842
0.000828967
0.0183011
0.0177712
0.0204738
0.000773913
0.0153186
0.000540897
0.000667405
0.0149589
0.0140547
0.0163849
0.000606484
0.0116583
0.000417947
0.000511386
0.0115028
0.0108204
0.01242
0.000462059
0.00939335
0.00033473
0.000393667
0.00921212
0.00880548
0.00987962
0.000362709
0.00816954
0.00030225
0.000331728
0.00783695
0.00763046
0.00834665
0.000326617
0.00711691
0.000293793
0.000337916
0.00698451
0.00643679
0.00765903
0.000331508
0.0199955
0.00086813
0.000329475
0.00115877
0.0194697
0.00120546
0.000927108
0.0285622
0.00106954
0.00111762
0.0264924
0.0274298
0.0275593
0.00114224
0.0258962
0.000920558
0.00106195
0.0258341
0.0246732
0.0272715
0.000981975
0.0199335
0.000714961
0.000847168
0.0203879
0.0188739
0.0216651
0.0007618
0.0145537
0.000532785
0.000633475
0.0151286
0.0139126
0.0158531
0.000562297
0.0111981
0.000404091
0.000467112
0.0114604
0.0107767
0.011942
0.000421699
0.0097583
0.000357256
0.000376569
0.00963523
0.00943878
0.00995594
0.000368734
0.00904132
0.000375168
0.000389085
0.00919753
0.00871692
0.00954038
0.000388927
0.0203633
0.00095717
0.000377953
0.00122868
0.0204499
0.00120602
0.000941046
0.0308438
0.00120897
0.00118881
0.0295886
0.0307496
0.0296472
0.00121844
0.0284091
0.00103944
0.00113713
0.0295142
0.0282091
0.0297722
0.00104994
0.0217063
0.000806094
0.00090681
0.0235171
0.0215187
0.0237198
0.000814263
0.0155881
0.000591421
0.000675238
0.0169862
0.0154584
0.0171322
0.000596494
0.0118396
0.000437867
0.000491286
0.0125967
0.0117618
0.0126879
0.000439987
0.0102195
0.000376507
0.000386947
0.0104262
0.0101946
0.0104543
0.000376349
0.0095297
0.000398122
0.000397398
0.0100079
0.00949031
0.0100474
0.000398345
0.0203087
0.000939262
0.000402056
0.00120672
0.0203257
0.00121746
0.000943224
0.029985
0.0012088
0.00115466
0.0293589
0.03053
0.0288744
0.00117866
0.0270693
0.0010348
0.00108827
0.0292607
0.0278175
0.0283792
0.00100238
0.0203952
0.00079524
0.000855097
0.023067
0.0210831
0.0222802
0.000764022
0.0145778
0.000577797
0.000628491
0.0164815
0.0150292
0.0160008
0.000553678
0.0110717
0.000424726
0.000454979
0.0122248
0.0114002
0.0118563
0.000407819
0.00963997
0.000364975
0.000361552
0.0100796
0.00986279
0.00984823
0.000353827
0.0090239
0.000388799
0.000376998
0.00970965
0.00923213
0.00948027
0.000378094
0.017866
0.00087887
0.000289685
0.00116037
0.0190161
0.00106795
0.000792255
0.0248829
0.00106853
0.000961128
0.0255394
0.0264638
0.0240566
0.000977073
0.0218022
0.000900008
0.000885139
0.0247818
0.0234121
0.0229064
0.000812257
0.0160874
0.000677493
0.000677629
0.0187461
0.0174081
0.0173989
0.000605476
0.011646
0.000491401
0.000494989
0.0135183
0.0125754
0.0125879
0.000440038
0.00904211
0.000365048
0.000364697
0.010214
0.00966662
0.00955817
0.000331909
0.00784097
0.000320849
0.000299946
0.00853888
0.00835613
0.00803394
0.000295105
0.00713969
0.000343214
0.00031255
0.00812285
0.00773924
0.00750459
0.00031088
0.00950077
0.000593016
0.000167989
0.000748858
0.0118833
0.000582438
0.000475283
0.0151403
0.000771166
0.000608
0.0171891
0.0178908
0.0144371
0.000619989
0.0138926
0.0006468
0.000567899
0.0167773
0.0161369
0.0143617
0.000522964
0.0106801
0.000480577
0.000436295
0.0130138
0.012215
0.0113029
0.000392066
0.00800568
0.000352839
0.000324149
0.00963521
0.00906854
0.00846003
0.000293155
0.00627225
0.000273076
0.000249038
0.00747815
0.00710775
0.00655682
0.000231086
0.00517168
0.000241836
0.000208935
0.00615103
0.00596789
0.00535725
0.000203271
0.00402422
0.000232259
0.000198095
0.00526741
0.00480075
0.00445027
0.000182986
0.00329596
0.000210608
0.000268874
8.18041e-05
0.00329117
0.000202614
0.000269768
0.00793391
0.000346638
0.00683705
0.000330448
0.00770428
0.000361354
0.0070232
0.00994972
0.000360005
0.0092704
0.000380541
0.00954381
0.000377069
0.0096528
0.00975502
0.000329268
0.00935988
0.000359603
0.00932944
0.000344961
0.00977682
0.00871729
0.000287521
0.00848698
0.000317699
0.00833645
0.000301589
0.00888779
0.00735078
0.000246494
0.00727753
0.000273556
0.00704372
0.000258967
0.00761262
0.00567228
0.00020773
0.00574541
0.000231421
0.0054286
0.000219356
0.00600131
0.0037387
0.000154836
0.0041582
0.000192736
0.00351704
0.000166207
0.00439418
0.0119601
0.00925877
0.000556181
0.000433962
0.0115746
0.00965678
0.000619357
0.0583786
0.0389671
0.0152381
0.014479
0.0466538
0.0455122
0.084655
0.0684923
0.0548184
0.0145781
0.0870482
0.0551293
0.0683396
0.0868776
0.0684577
0.0556617
0.014047
0.0866829
0.0556571
0.0685063
0.0865998
0.068518
0.0556059
0.0142893
0.086636
0.0555202
0.0685046
0.0867635
0.0653246
0.0539683
0.0148262
0.0869352
0.0522793
0.0675383
0.085878
0.024637
0.0302791
0.000947891
0.00292783
0.021997
0.0338761
0.00113962
0.00322737
0.000161539
0.000230307
8.09088e-05
0.0031753
0.000195208
0.000266155
0.00803936
0.00036505
0.00709719
0.000330992
0.0080284
0.000363432
0.00709885
0.0102746
0.000385172
0.0100471
0.000383965
0.0103906
0.000380616
0.0099513
0.0101239
0.000353738
0.010275
0.000363406
0.0102696
0.000348748
0.0101367
0.00902863
0.00030961
0.00935652
0.00032128
0.009161
0.000305025
0.00922027
0.00759598
0.000266167
0.00800094
0.000276712
0.00770783
0.000262005
0.00788205
0.00589499
0.000226526
0.00632404
0.000234408
0.00598888
0.00022237
0.00622927
0.00389729
0.000172977
0.00466068
0.000195813
0.00397173
0.00016902
0.00457716
0.0125311
0.00973636
0.00066118
0.000437265
0.0128579
0.00955093
0.000638817
0.063865
0.0508847
0.0865098
0.0145487
0.0655406
0.0497681
0.0855962
0.080084
0.0849987
0.0899775
0.0885215
0.0853757
0.0798395
0.0884619
0.0799918
0.0855479
0.0899811
0.0883617
0.0855198
0.0800501
0.0883208
0.080087
0.0855606
0.0899804
0.0883394
0.0855341
0.0800642
0.0884049
0.0742373
0.0828603
0.0882311
0.088443
0.0773673
0.0782449
0.087086
0.0262631
0.0377928
0.00120533
0.00303028
0.0271823
0.0367503
0.00117691
0.0028648
0.00020957
0.000265535
7.04385e-05
0.00319228
0.000190496
0.000243737
0.00646357
0.000337448
0.00638629
0.000277094
0.00720776
0.000301829
0.00574682
0.00771553
0.000350754
0.0085055
0.000315769
0.00878272
0.000313822
0.00749919
0.00744311
0.000320951
0.00856709
0.000299119
0.00854866
0.000287154
0.00747764
0.00658536
0.00028004
0.00774462
0.000263725
0.00760053
0.000249966
0.00671375
0.00554824
0.000239715
0.00661757
0.000226161
0.00639318
0.00021329
0.00573232
0.00441015
0.000202075
0.00526873
0.00019071
0.00500946
0.000179044
0.0046301
0.00278341
0.000149368
0.00381143
0.000152827
0.00321931
0.000129186
0.00332063
0.00936801
0.00907315
0.000517584
0.000354534
0.0106817
0.00783214
0.000428149
0.0244605
0.0284011
0.00296344
0.000807051
0.0335668
0.0199455
0.00115047
0.0335382
0.0419556
0.00328896
0.00141944
0.0426941
0.0326112
0.00145951
0.0346384
0.0439159
0.00330769
0.00148634
0.0439372
0.0347253
0.00147042
0.0343852
0.0437543
0.00330516
0.00147016
0.0435358
0.0345401
0.00147386
0.0298705
0.0409275
0.003124
0.00141508
0.0391359
0.0319329
0.00131224
0.0141352
0.0240527
0.000851894
0.000878498
0.0183229
0.018914
0.00064781
0.00290911
6.01609e-05
0.000241684
0.000248073
0.000198333
0.00368838
0.000195627
0.00356087
9.53399e-05
0.000250159
0.000314193
0.000256117
0.00462052
0.000194911
0.00460073
0.000263696
0.000273007
0.00658804
0.00549343
0.00565671
0.000219313
0.0028651
7.05622e-05
0.000209479
0.000265288
0.000190663
0.000243366
0.00319082
0.00390723
0.000265537
0.000237725
0.00545641
0.000214161
0.00493514
0.00430569
0.00477566
0.000333821
0.000297737
0.00732583
0.000270055
0.00645054
0.0055099
0.0050373
0.000115819
0.000276498
0.000295048
0.00028657
0.00528081
0.000271356
0.0065966
0.000272717
0.000364037
0.00730339
0.00608016
0.00787121
0.000292134
0.00684559
0.00030149
0.000369407
0.008509
0.00717065
0.00817871
0.00029567
0.00646677
0.000277309
0.000337573
0.006389
0.000302001
0.00575041
0.00721043
0.00691316
0.000315469
0.000342885
0.00830307
0.00030671
0.00736555
0.00773209
0.0054732
0.000115374
0.000261204
0.00028356
0.000291457
0.00545075
0.000269701
0.00735392
0.000300906
0.000372182
0.00853368
0.00721388
0.00866953
0.000296535
0.00719036
0.000283295
0.000367069
0.00840932
0.00720531
0.00841871
0.000293299
0.00771817
0.000315907
0.000350888
0.00850798
0.000313963
0.00750178
0.00878526
0.00762028
0.000303359
0.000348071
0.00880235
0.000311585
0.00769812
0.0086774
0.0050905
0.000101759
0.000230361
0.000251187
0.000263709
0.00496742
0.0002419
0.00688301
0.000278713
0.000326313
0.00801282
0.00694287
0.00792428
0.000266081
0.00657239
0.000247969
0.000318712
0.00738987
0.00647513
0.0075241
0.000261015
0.00744559
0.000299236
0.000321079
0.00856953
0.000287284
0.00748007
0.00855118
0.00713438
0.000269109
0.000315384
0.00811083
0.000282324
0.00704477
0.00818435
0.00445567
8.52136e-05
0.000198964
0.000215614
0.000228292
0.00430392
0.000209924
0.00604558
0.000242915
0.000275319
0.00699852
0.00616108
0.00684564
0.000230234
0.00574004
0.000213552
0.000268775
0.00634209
0.00560715
0.00650973
0.000225376
0.00658782
0.000263837
0.000280161
0.00774704
0.000250094
0.00671616
0.00760297
0.00624208
0.000231433
0.00027404
0.00701607
0.000244758
0.00608348
0.00720316
0.00374122
6.91894e-05
0.00016966
0.000181949
0.000193788
0.0035672
0.000179986
0.00515507
0.000208963
0.000235093
0.00601931
0.00530491
0.00583629
0.000197862
0.00485564
0.000182692
0.000230083
0.00532475
0.00467329
0.00553742
0.000193432
0.0055498
0.000226249
0.000239826
0.00661924
0.000213384
0.00573397
0.00639477
0.00520115
0.000195711
0.000233976
0.00571391
0.000208273
0.00498344
0.00598123
0.00296847
5.53904e-05
0.000138175
0.00014781
0.000161698
0.00274671
0.000151226
0.00415962
0.000178332
0.000204138
0.0049815
0.00435371
0.00477123
0.000168213
0.00384463
0.000150653
0.000199776
0.00414811
0.00357407
0.00442967
0.000163686
0.00441127
0.000190793
0.000202175
0.0052702
0.00017913
0.00463133
0.00501088
0.00408685
0.000159852
0.000196996
0.00432174
0.000174229
0.00379518
0.00463166
0.00149185
3.66691e-05
2.91691e-05
3.40704e-05
0.00010687
9.13652e-05
9.77232e-05
0.00267337
0.000144089
0.000157863
0.00361995
0.00312374
0.0031353
0.000121369
0.00189105
3.03385e-05
0.000143098
0.000140136
0.000102016
0.00223997
0.000108191
0.00278406
0.00015289
0.000149436
0.00381258
0.000129256
0.00332126
0.00322055
0.00196526
3.73018e-05
0.000135681
0.000120732
0.000116958
0.000101214
0.00226029
0.0025309
0.0001537
0.000134145
0.00333156
0.000113084
0.0029641
0.00288703
0.00804977
0.000292318
0.000432573
0.00802348
0.00692934
0.00929197
0.000354781
0.00769427
0.000147131
0.000444799
0.000559849
0.000422281
0.00947044
0.000346643
0.0097091
0.000470391
0.00049746
0.0133133
0.0112219
0.011728
0.000384979
0.00937116
0.000354397
0.00907435
0.00051754
0.00783341
0.000428129
0.0106828
0.0114046
0.00067872
0.000610851
0.0202604
0.000468902
0.0152065
0.0145012
0.011401
0.000401707
0.00050813
0.0100923
0.00976304
0.0117065
0.000501735
0.0131587
0.000492264
0.000686974
0.0145609
0.0123178
0.0154413
0.000539927
0.0135157
0.000549049
0.000693978
0.0160943
0.0137573
0.0159016
0.00054698