/*--------------------------------*- C++ -*----------------------------------*\
| =========                 |                                                 |
| \\      /  F ield         | OpenFOAM: The Open Source CFD Toolbox           |
|  \\    /   O peration     | Version:  2.4.0                                 |
|   \\  /    A nd           | Web:      www.OpenFOAM.org                      |
|    \\/     M anipulation  |                                                 |
\*---------------------------------------------------------------------------*/
FoamFile
{
    version     2.0;
    format      ascii;
    class       volScalarField;
    location    "60";
    object      epsilon;
}
// * * * * * * * * * * * * * * * * * * * * * * * * * * * * * * * * * * * * * //

dimensions      [0 2 -3 0 0 0 0];

internalField   nonuniform List<scalar> 
43096
(
1.47065e-06
1.6839e-05
2.37352e-05
1.87693e-05
1.195e-05
6.36487e-06
3.82339e-06
1.79026e-06
2.55312e-05
0.000210724
0.00029642
0.000221001
0.000137027
8.75674e-05
6.23488e-05
4.42063e-05
8.13262e-05
0.00141504
0.00159134
0.00088572
0.000421767
0.000217742
0.000159468
0.000184427
0.00034477
0.00471859
0.00413737
0.00212176
0.000914961
0.000396867
0.000260118
0.000364856
0.000451982
0.00688131
0.00603819
0.00308276
0.0012843
0.000515074
0.000306554
0.000433571
0.000377972
0.0068906
0.00599501
0.00298909
0.00121131
0.000476351
0.000281836
0.000408983
0.00040656
0.00481326
0.00396856
0.00185437
0.000739182
0.000303977
0.00019668
0.000290091
0.000116071
0.00177991
0.00147448
0.000665581
0.000271392
0.000126916
8.8909e-05
0.000104383
7.247e-06
0.000145889
0.000220163
0.000191083
0.000136617
9.03368e-05
5.74924e-05
3.52385e-05
0.000315517
0.000740442
0.000397637
0.000193014
9.77753e-05
6.63191e-05
9.20309e-05
9.79661e-05
0.123297
0.00458362
0.00148642
0.000543646
0.000222023
0.000124597
0.000238676
0.000567245
0.122943
0.00642574
0.00261066
0.000981062
0.00036346
0.000173971
0.000325196
0.000956982
0.130412
0.0066424
0.00286327
0.00113263
0.000422397
0.000189567
0.000338045
0.00101931
0.131549
0.00643955
0.00261037
0.000968091
0.000348939
0.000163161
0.000316073
0.0010026
0.125207
0.0046663
0.00152694
0.000538093
0.000200577
0.000104768
0.000212053
0.000811278
0.039006
0.00166446
0.000778287
0.000307159
0.000124118
6.13049e-05
6.92498e-05
0.000199538
3.55548e-06
0.000160285
0.000265238
0.00023408
0.000169411
0.000113019
7.38737e-05
4.84558e-05
0.00037934
0.000740193
0.000397435
0.000192889
9.76937e-05
6.62322e-05
9.18713e-05
0.000129477
0.129879
0.00458265
0.00148592
0.000543404
0.000221889
0.000124465
0.000238282
0.00081769
0.010036
0.00642484
0.00260995
0.000980674
0.000363271
0.000173818
0.000324762
0.00131093
0.0100164
0.00664146
0.00286253
0.00113221
0.000422187
0.000189413
0.000337621
0.00138389
0.0100168
0.00643877
0.00260977
0.000967747
0.000348765
0.000163027
0.000315679
0.00136672
0.0100507
0.00466576
0.00152657
0.00053789
0.00020046
0.000104679
0.000211789
0.0011405
0.0997459
0.00203748
0.000877392
0.000336523
0.000134827
6.75087e-05
8.09255e-05
0.000292392
6.82033e-06
0.00013504
0.000202916
0.000176937
0.00012643
8.33338e-05
5.30407e-05
3.16602e-05
0.000291314
0.000234177
0.000201824
0.000125409
7.08938e-05
4.50725e-05
4.24458e-05
5.50115e-05
0.0351427
0.00175258
0.000897961
0.000402031
0.000180452
9.22814e-05
9.54799e-05
0.000242447
0.114147
0.00368307
0.00188188
0.000812367
0.000328161
0.000145446
0.000137525
0.000420054
0.118612
0.00433283
0.00231122
0.00102355
0.000408068
0.000171264
0.00015029
0.000457873
0.118603
0.00419409
0.00216802
0.000926881
0.000361766
0.000151307
0.000138371
0.000441696
0.113414
0.00291051
0.00136492
0.000560255
0.000220926
9.78965e-05
9.76819e-05
0.00033061
0.0188353
0.000912218
0.000534624
0.000233429
9.85537e-05
4.88915e-05
4.57393e-05
9.0791e-05
1.48186e-05
2.15275e-05
0.000151675
6.82709e-06
0.00011909
0.000232774
8.52423e-05
2.36835e-05
0.000168157
0.000237661
0.000135253
0.000202058
9.8667e-05
0.000100654
1.69885e-05
0.000236398
0.000193332
0.000203218
0.000184252
9.35992e-05
8.17421e-05
1.11108e-05
0.000182422
0.000125267
0.000177151
0.000133894
6.68331e-05
5.40842e-05
7.82502e-06
0.000117012
8.09041e-05
0.000126545
8.89948e-05
4.30068e-05
3.5137e-05
4.09851e-06
7.60565e-05
5.6167e-05
8.33694e-05
5.69602e-05
2.95486e-05
2.63759e-05
2.04378e-06
5.32604e-05
3.88405e-05
5.30349e-05
3.53582e-05
2.47468e-05
2.3744e-05
1.24081e-07
3.52725e-05
1.18535e-06
3.16516e-05
1.53569e-06
2.1473e-05
3.7464e-05
0.000188186
7.0227e-05
0.000931876
0.000291168
0.000205032
0.0134049
0.000682586
0.000298868
0.00106066
0.00135689
0.000234426
0.000235744
0.000573677
0.000534844
0.000235014
0.00128538
0.000841757
0.000202044
0.00016788
0.000414823
0.000324251
0.00014706
0.000755625
0.000414395
0.000125568
9.67842e-05
0.000225676
0.000165601
9.30148e-05
0.000371844
0.000214282
7.0993e-05
5.57925e-05
0.000113521
8.5039e-05
6.53011e-05
0.000197943
0.000148896
4.5145e-05
4.12399e-05
6.48666e-05
5.91682e-05
4.77614e-05
0.00014559
0.00015698
4.25272e-05
4.64098e-05
6.49858e-05
7.96629e-05
1.80171e-06
0.000158886
1.2783e-05
5.51266e-05
5.15944e-05
0.000126414
0.000868526
0.00124449
0.000279929
0.00402463
0.035146
0.00241046
0.112011
0.0045814
0.00169825
0.00423672
0.00405468
0.00175353
0.00132975
0.00276135
0.00205378
0.000988849
0.00372358
0.00215725
0.000898597
0.000610242
0.00131867
0.000913634
0.000470655
0.00192354
0.000948278
0.000402406
0.000275416
0.000575728
0.000390057
0.000236006
0.000843212
0.000411193
0.000180651
0.000127031
0.000245996
0.00016857
0.000162085
0.00037447
0.000251864
9.23925e-05
8.199e-05
0.000117362
0.00010075
0.000179295
0.000249379
0.000322987
9.56349e-05
0.000131675
0.000116643
0.000168084
1.52355e-05
0.000345325
3.19864e-05
0.000243139
0.00262235
0.000355896
0.0100354
0.00447617
0.00046033
0.00636487
0.114154
0.00578819
0.117902
0.00632366
0.00449854
0.00674275
0.00640937
0.0036849
0.00279196
0.00416669
0.00319138
0.00236914
0.0058946
0.00333397
0.00188292
0.00127707
0.0021618
0.00149285
0.0010273
0.00300787
0.00141449
0.000812924
0.00052886
0.000938447
0.000614632
0.000436479
0.00125555
0.000562225
0.000328441
0.000216301
0.00037514
0.000244765
0.000262343
0.000507683
0.000309824
0.000145586
0.000119054
0.000161279
0.000129242
0.000339398
0.000304922
0.000400923
0.000137691
0.000202367
0.00014629
0.000214463
3.36159e-05
0.000431035
3.8925e-05
0.000421082
0.0104488
0.00045025
0.0114444
0.00648133
0.000373137
0.00653158
0.118641
0.00649222
0.118825
0.00648896
0.00655961
0.00695541
0.00663945
0.00433552
0.00334227
0.00433927
0.00334925
0.00341195
0.00610326
0.00340484
0.00231245
0.00160382
0.00231517
0.00160347
0.00144567
0.00306421
0.0014153
0.00102413
0.000668092
0.00102116
0.000664132
0.000570815
0.00125058
0.000547967
0.000408363
0.000263468
0.000404556
0.000259899
0.000311319
0.000491998
0.000294263
0.00017141
0.000134446
0.00016846
0.000131617
0.000402055
0.000289622
0.000386432
0.000150428
0.000220138
0.000147718
0.000217774
3.89798e-05
0.000417385
3.58805e-05
0.000458843
0.0114627
0.000456745
0.0114509
0.00647792
0.000427091
0.00499769
0.118611
0.00634907
0.115203
0.00586821
0.00652816
0.00525499
0.00477035
0.00419605
0.00321396
0.00377122
0.00285237
0.0033272
0.0043559
0.00233716
0.00216907
0.0014903
0.00190858
0.00128026
0.00137329
0.0020543
0.000933283
0.000927412
0.000601916
0.000798733
0.00051032
0.000530135
0.000818538
0.000369324
0.000362044
0.00023344
0.000309195
0.00019896
0.000285607
0.000331704
0.000214115
0.000151433
0.000120942
0.000130566
0.000105761
0.000377449
0.000211789
0.000288888
0.000138484
0.000206398
0.000124513
0.00018851
3.47536e-05
0.000314329
2.62253e-05
0.000442622
0.0113895
0.00040701
0.0103481
0.00459492
0.000153936
0.00204615
0.113417
0.00477379
0.040793
0.00277012
0.00435477
0.0021936
0.0019512
0.00291148
0.00216611
0.0019953
0.00148037
0.002121
0.001781
0.000911474
0.00136561
0.00092936
0.000959943
0.00063291
0.000846567
0.000796345
0.000364473
0.000560672
0.000368814
0.000390399
0.000253114
0.000337956
0.000319585
0.000161217
0.000221135
0.000146613
0.000155797
0.000104054
0.000198578
0.000146497
0.000104696
9.79773e-05
8.29539e-05
7.21617e-05
6.25363e-05
0.000266368
0.000102669
0.000122391
9.77447e-05
0.000145949
7.40665e-05
0.000105877
2.40453e-05
0.000127857
8.32277e-06
0.000331353
0.00988664
0.000207826
0.00235538
0.00165886
3.96825e-06
0.000102545
0.0188362
0.00105459
9.73616e-05
0.00134886
0.00160841
0.000107328
9.23735e-05
0.00091269
0.000758808
0.00144194
0.00131305
0.000760087
8.60835e-05
4.54303e-05
0.000535027
0.000362742
0.00121871
0.000666331
0.000308937
4.0977e-05
1.94517e-05
0.000233655
0.000152676
0.000595403
0.00029824
0.000139378
1.7442e-05
8.47781e-06
9.86552e-05
6.72869e-05
0.000265633
0.000143971
9.07878e-05
7.69602e-06
4.52944e-06
4.89205e-05
4.23468e-05
0.000130927
9.11643e-05
0.000101376
4.27229e-06
3.51032e-06
4.57388e-05
5.94718e-05
8.79561e-05
9.8237e-05
6.4145e-06
3.3629e-06
2.75226e-07
9.0899e-05
0.000655196
0.000100139
6.24673e-06
0.000127691
0.000250645
0.000134917
3.4241e-06
0.000135075
0.000279965
0.000160641
0.000218414
0.000165319
0.000155486
0.000160212
0.00026293
0.000181475
0.000170341
0.000198311
0.000131179
0.000110432
0.000265172
0.000242691
0.000143032
0.000120389
0.000144118
8.50663e-05
6.75086e-05
0.000234005
0.000178564
9.21109e-05
7.31275e-05
9.61727e-05
5.22727e-05
4.23957e-05
0.000169333
0.000120181
5.63981e-05
4.59271e-05
6.1727e-05
3.57514e-05
3.29049e-05
0.000112953
7.89399e-05
3.89504e-05
3.62411e-05
3.9055e-05
3.30114e-05
3.49859e-05
7.38181e-05
5.32205e-05
3.71625e-05
4.01854e-05
1.71094e-06
3.37078e-05
4.46506e-05
4.84051e-05
2.32e-06
4.23192e-05
7.24436e-05
0.000442857
0.0317199
0.001862
0.000379061
0.000624207
0.0910939
0.00302543
6.17352e-05
0.000262423
0.00281231
0.000129588
0.00010547
0.000378007
0.00984982
0.00776541
0.122836
0.0119906
0.129884
0.0116468
0.0100508
0.0118822
0.00197517
0.000834039
0.00520358
0.000817589
0.00497146
0.00116444
0.00416611
0.0129616
0.129908
0.0132657
0.0100358
0.0109407
0.0100161
0.0108182
0.00529476
0.00100569
0.0057466
0.00131023
0.00417753
0.00136928
0.00428863
0.0133823
0.131969
0.0134002
0.0100162
0.0108407
0.0100168
0.0108562
0.00574833
0.00101552
0.00574141
0.00138307
0.00428131
0.00138108
0.00428802
0.0132715
0.125214
0.0129722
0.0100167
0.0108573
0.0100364
0.0109807
0.00572365
0.000942738
0.00524594
0.00136586
0.0042783
0.00129821
0.00417914
0.0120184
0.122844
0.00803807
0.0100506
0.0119037
0.129391
0.011735
0.00513612
0.00051769
0.00177533
0.00113962
0.00414896
0.000759263
0.00471477
0.00241673
0.000113428
0.00155602
0.0997464
0.00364551
0.000114782
0.00213668
0.00122939
0.00166317
0.00148013
0.0020375
0.00144617
0.00224214
0.00187699
0.000499009
0.00136945
0.000734531
0.000877477
0.000556531
0.00172085
0.000911042
0.000197007
0.000656132
0.000327119
0.000336569
0.00021527
0.000811498
0.000411458
8.47365e-05
0.000291584
0.000158191
0.000134846
9.2402e-05
0.00036688
0.000201868
5.66703e-05
0.000143903
0.000101608
6.74993e-05
6.37692e-05
0.000183634
0.000137328
0.000102035
9.81722e-05
0.000115595
8.09052e-05
0.000127482
0.000134834
0.000190248
0.00236404
0.000119856
7.74891e-06
0.0002919
0.00901385
0.000206463
1.58797e-05
0.000134969
0.000279909
0.000160595
7.26059e-06
0.000127575
0.000250934
0.000134815
0.000262717
0.000181422
0.000170269
0.000145546
0.000218185
0.000165171
0.000155358
0.000242488
0.000142979
0.000120333
0.000219674
0.00019812
0.000131047
0.000110325
0.00017841
9.20749e-05
7.30898e-05
0.000190682
0.000143998
8.49643e-05
6.74314e-05
0.000120078
5.63724e-05
4.59009e-05
0.000136333
9.61227e-05
5.21973e-05
4.23368e-05
7.88719e-05
3.89295e-05
3.62139e-05
9.01684e-05
6.17219e-05
3.5686e-05
3.28432e-05
5.31783e-05
3.71349e-05
4.01293e-05
5.73998e-05
3.90539e-05
3.29434e-05
3.49375e-05
2.31669e-06
4.21923e-05
7.23795e-05
3.51734e-05
1.71176e-06
3.37124e-05
4.4649e-05
0.000624087
0.0910898
0.00302496
0.000315439
0.000442633
0.0317162
0.00186131
0.000105387
0.000377183
0.00983512
9.77463e-05
6.17183e-05
0.000262005
0.00280778
0.011646
0.0100508
0.0118824
0.123314
0.0077634
0.12283
0.0119883
0.00496086
0.00116312
0.00415719
0.000565164
0.00197104
0.000831736
0.00519381
0.010942
0.0100161
0.0108193
0.122939
0.0129592
0.129889
0.0132631
0.00416927
0.00136811
0.00428023
0.000953614
0.00528517
0.00100317
0.00573777
0.0108423
0.0100167
0.0108572
0.130396
0.0133791
0.131956
0.0133975
0.00427347
0.00137996
0.00427962
0.00101588
0.00573965
0.00101298
0.00573266
0.0108586
0.0100363
0.0109814
0.131542
0.0132686
0.125205
0.0129702
0.00427045
0.00129716
0.00417027
0.000999143
0.00571496
0.000940105
0.00523632
0.0119044
0.129389
0.0117346
0.125197
0.0120169
0.122836
0.00803729
0.00414058
0.000758741
0.00470433
0.00080804
0.00512656
0.000515896
0.00177154
0.0036454
0.000116119
0.00213658
0.0390049
0.00241643
0.000113498
0.0015555
0.00144598
0.00224197
0.00187661
0.00166401
0.00122897
0.00166247
0.00147897
0.000556404
0.00172051
0.000910741
0.000777829
0.000498723
0.00136828
0.000733754
0.000215195
0.000811247
0.000411279
0.000306881
0.00019685
0.000655376
0.000326775
9.23601e-05
0.000366732
0.000201752
0.000123968
8.46649e-05
0.000291257
0.000158047
6.37087e-05
0.00018354
0.000137233
6.12124e-05
5.66241e-05
0.000143771
0.00010157
0.000127312
0.000134753
0.000190084
6.90994e-05
0.000101862
9.81356e-05
0.000115564
0.00900093
0.000206311
1.58524e-05
0.000198519
0.00235991
0.00011981
7.75284e-06
0.000118732
0.000232709
8.50035e-05
1.50418e-06
1.64983e-05
2.17961e-05
0.000151111
0.000201507
9.84623e-05
0.000100461
1.59642e-05
2.55983e-05
0.000167642
0.000237367
0.000183791
9.34188e-05
8.15786e-05
2.20543e-05
1.9289e-05
0.000236127
0.000193218
0.000133578
6.66878e-05
5.39623e-05
1.84513e-05
1.34844e-05
0.000182325
0.000125239
8.88127e-05
4.28999e-05
3.50458e-05
1.08908e-05
7.3081e-06
0.000116992
8.09073e-05
5.68628e-05
2.94584e-05
2.62944e-05
6.86631e-06
4.2849e-06
7.60681e-05
5.61941e-05
3.53022e-05
2.46536e-05
2.36723e-05
3.45465e-06
1.93404e-06
5.32974e-05
3.88693e-05
1.53239e-06
2.13909e-05
3.74141e-05
1.77114e-06
1.33933e-07
3.53065e-05
1.18784e-06
0.000204722
0.0134008
0.000682082
2.34335e-05
0.000187625
7.02801e-05
0.000930998
0.000235471
0.000573226
0.000534409
0.000210012
0.000298558
0.00105977
0.00135568
0.000167654
0.000414388
0.000323906
0.000295915
0.000234867
0.0012843
0.000840923
9.66292e-05
0.000225369
0.000165387
0.000220692
0.000147024
0.000754954
0.00041407
5.56864e-05
0.000113339
8.49079e-05
0.000136853
9.30233e-05
0.000371629
0.000214246
4.11402e-05
6.47368e-05
5.90483e-05
8.74618e-05
6.53378e-05
0.000197964
0.000148957
4.6285e-05
6.47979e-05
7.94304e-05
6.22907e-05
4.7801e-05
0.000145707
0.000157055
5.15268e-05
0.000125729
0.000864832
4.4168e-05
1.80675e-06
0.000158993
1.27739e-05
0.00240914
0.112011
0.00457899
8.08388e-05
0.00124357
0.000296742
0.00402174
0.00132889
0.00275983
0.00205255
0.00141349
0.00169672
0.0042337
0.00405122
0.000609697
0.0013177
0.000912907
0.00158932
0.000987818
0.00372044
0.00215488
0.000275097
0.00057514
0.000389654
0.000884449
0.000470234
0.00192138
0.000947135
0.000126854
0.000245681
0.000168361
0.000421202
0.000235945
0.000842252
0.000410874
8.18312e-05
0.000117182
0.000100592
0.000217523
0.000162144
0.000374247
0.000251897
0.000131258
0.00011637
0.000167573
0.000159311
0.000179376
0.000249477
0.000323008
0.00261423
0.000353864
0.0100088
0.000184155
1.5217e-05
0.000345341
3.19123e-05
0.00578488
0.117875
0.0063193
0.000337017
0.00447309
0.000461216
0.00635833
0.00279044
0.00416414
0.00318961
0.00471382
0.00449472
0.00673622
0.00640373
0.00127616
0.00216045
0.00149182
0.00413248
0.00236661
0.00588947
0.00333037
0.00052836
0.000937698
0.000614095
0.00211854
0.00102611
0.00300457
0.00141271
0.000216047
0.000374736
0.000244493
0.000913435
0.000436146
0.00125395
0.000561667
0.000118865
0.00016107
0.000129071
0.000396308
0.00026238
0.00050723
0.000309789
0.000201781
0.000146029
0.000213912
0.000259823
0.000339455
0.00030494
0.000400913
0.0104235
0.000448024
0.0114195
0.000364184
3.35249e-05
0.000430975
3.88372e-05
0.00648684
0.11881
0.00648363
0.000453062
0.00647453
0.000377075
0.00652511
0.00334033
0.00433643
0.00334737
0.00687199
0.00655375
0.00694881
0.00663338
0.00160275
0.00231373
0.00160239
0.00603081
0.00340834
0.00609767
0.00340106
0.000667553
0.0010204
0.000663579
0.00307821
0.00144392
0.00306076
0.00141341
0.000263183
0.000404163
0.000259613
0.00128203
0.000570278
0.0012489
0.00054735
0.000134254
0.000168256
0.000131458
0.000514265
0.0003113
0.000491488
0.000294218
0.000219586
0.000147491
0.000217244
0.000306161
0.000402101
0.00028963
0.000386384
0.0114392
0.000454553
0.0114264
0.000432773
3.88766e-05
0.000417268
3.57948e-05
0.00634527
0.115204
0.00586557
0.000413703
0.0064732
0.000428344
0.00499531
0.00321237
0.00376963
0.00285107
0.0068829
0.00652234
0.00525215
0.00476611
0.00148933
0.0019075
0.00127941
0.00598742
0.00332357
0.00435187
0.00233433
0.000601415
0.000798107
0.000509842
0.00298461
0.00137152
0.00205168
0.000931979
0.000233184
0.000308876
0.000198729
0.00120911
0.000529583
0.000817394
0.000368954
0.000120771
0.000130407
0.000105637
0.000475567
0.000285598
0.000331409
0.000214099
0.000205875
0.00012433
0.000188001
0.00028151
0.000377477
0.000211803
0.000288825
0.011366
0.000404916
0.0103219
0.000408224
3.46603e-05
0.000314178
2.61594e-05
0.00477214
0.0407906
0.00276925
0.000406732
0.00459315
0.000162987
0.00204483
0.0021651
0.0019945
0.00147964
0.0048094
0.00435087
0.00219203
0.00194911
0.00092869
0.00095933
0.000632406
0.0039633
0.00211841
0.00177905
0.00091031
0.000368436
0.000390026
0.000252828
0.00185123
0.000845418
0.000795344
0.00036408
0.000146433
0.00015561
0.000103922
0.000737792
0.000337653
0.000319277
0.000161148
8.28405e-05
7.20771e-05
6.24658e-05
0.0003035
0.000198585
0.000146456
0.00010471
0.000145537
7.3972e-05
0.000105599
0.000196427
0.000266357
0.000102694
0.000122385
0.00986186
0.000206753
0.00234797
0.00028947
2.39865e-05
0.000127836
8.31148e-06
0.00105407
9.73573e-05
0.00134777
0.000134222
0.00165781
4.01041e-06
0.000102333
0.000758193
0.00144071
0.00131131
0.0017779
0.00160661
0.000107087
9.21268e-05
0.000362325
0.00121705
0.000665141
0.00147205
0.000759112
8.58393e-05
4.52993e-05
0.000152452
0.000594337
0.000297658
0.00066435
0.000308632
4.08494e-05
1.94022e-05
6.71768e-05
0.000265132
0.000143689
0.000270932
0.000139335
1.73924e-05
8.46088e-06
4.22698e-05
0.00013069
9.10052e-05
0.000126747
9.08118e-05
7.67808e-06
4.52352e-06
5.92846e-05
8.78186e-05
9.80549e-05
8.87888e-05
0.000101393
4.26554e-06
3.50752e-06
0.000652478
9.99662e-05
6.22977e-06
0.000104181
6.40695e-06
3.3595e-06
2.50428e-07
2.72558e-05
1.34144e-06
7.65728e-06
3.88274e-06
2.41211e-05
4.96168e-05
2.45167e-05
4.50233e-05
2.14302e-05
7.07429e-05
7.77122e-05
0.000100728
4.32491e-05
8.65894e-05
4.4397e-05
2.30346e-05
9.51984e-05
0.000117112
0.000115945
4.58011e-05
9.23624e-05
3.4432e-05
1.6521e-05
7.95154e-05
0.000101917
9.11125e-05
3.72371e-05
7.08875e-05
2.40979e-05
9.97781e-06
5.61767e-05
7.18924e-05
6.18432e-05
2.64122e-05
4.88167e-05
1.68228e-05
5.49794e-06
3.7581e-05
4.65572e-05
3.953e-05
1.8322e-05
3.2433e-05
1.20736e-05
2.79178e-06
2.45634e-05
2.9113e-05
2.46079e-05
1.30979e-05
2.0988e-05
6.43393e-06
1.02701e-06
1.3548e-05
1.57664e-05
9.50995e-06
8.21236e-06
8.08225e-06
0.000106112
8.77144e-05
4.00745e-05
0.000161147
7.19036e-05
0.000265665
0.000148237
0.000203976
0.000269484
0.000397783
0.000127155
0.00013702
0.000189972
0.000518266
0.000193924
0.000280934
0.000549854
0.000142063
0.000135049
0.000205232
0.000512983
0.000124236
0.000188136
0.000378117
0.000102454
9.14201e-05
0.000140851
0.000312491
7.06672e-05
0.000115875
0.000212474
6.21312e-05
5.50546e-05
8.07257e-05
0.000174468
4.4999e-05
7.68137e-05
0.0001272
3.9593e-05
3.64275e-05
4.90306e-05
0.000111146
3.96398e-05
5.66955e-05
9.35175e-05
3.15202e-05
3.06698e-05
3.98329e-05
8.88983e-05
4.03894e-05
3.02928e-05
7.99757e-05
2.94169e-05
2.63932e-05
4.25979e-05
6.12096e-05
0.00110871
0.000499983
0.000146698
0.00112672
0.000656553
0.002837
0.00109772
0.0011558
0.00179082
0.00253454
0.000834032
0.000833928
0.00118351
0.0029232
0.000738538
0.00134371
0.00239974
0.000657634
0.00057647
0.000843672
0.00196192
0.000371538
0.000679331
0.00126569
0.000355757
0.000302017
0.000438543
0.000954831
0.000173698
0.000324034
0.000579072
0.000172975
0.000145812
0.000207645
0.000433063
9.06948e-05
0.00018358
0.000280905
8.8922e-05
7.93968e-05
0.000102422
0.000230544
8.65483e-05
0.000161966
0.000199124
7.22143e-05
7.58888e-05
8.16378e-05
0.00020667
0.000152195
0.000165643
0.00025668
0.000115017
0.000122835
0.000138314
0.000245529
0.00292045
0.00257661
0.000452343
0.00606186
0.00261223
0.00684529
0.00314371
0.00247221
0.00513225
0.00581636
0.00231968
0.00218854
0.00261913
0.00626106
0.00150323
0.00330912
0.0050648
0.00156013
0.00133425
0.00174877
0.00402075
0.000712427
0.00156194
0.00259178
0.000773265
0.000641993
0.000857114
0.00188761
0.000305822
0.000655614
0.00109051
0.000340719
0.000279131
0.000374754
0.00076805
0.000137816
0.000311182
0.000455474
0.00015045
0.000128745
0.000162036
0.000350731
0.000122112
0.000272712
0.000286135
0.000108447
0.000116083
0.000114038
0.000299933
0.000244421
0.000364248
0.000404651
0.000205164
0.000231445
0.000215104
0.000406185
0.00330201
0.00346043
0.000329333
0.00727269
0.0033077
0.00683196
0.00326899
0.0029844
0.00743537
0.00701641
0.00309316
0.00293432
0.0031379
0.00761837
0.00185011
0.00476724
0.00622757
0.00211901
0.00181386
0.00215506
0.00491345
0.000880316
0.00223376
0.00317736
0.00104074
0.000864432
0.00105932
0.00230217
0.000370245
0.000890908
0.00131951
0.00045084
0.000365133
0.000457338
0.000913829
0.000157626
0.000388257
0.000524547
0.000187362
0.000156818
0.000188565
0.000392603
0.00013097
0.000318978
0.000306968
0.000123765
0.000130916
0.000123658
0.00031931
0.000265028
0.000436045
0.000434602
0.000232472
0.000264227
0.000232055
0.00043798
0.00320709
0.00333535
0.000420509
0.00701242
0.00326544
0.00712229
0.00334537
0.00275974
0.00744744
0.00643963
0.00304455
0.0028823
0.00292378
0.00689931
0.00165573
0.00471053
0.00546227
0.00204357
0.00174721
0.00194922
0.00428297
0.000764025
0.00214672
0.00266869
0.00098559
0.000813278
0.000927163
0.00190621
0.000313426
0.000832263
0.00106689
0.000417106
0.000335683
0.000389286
0.000734532
0.000133617
0.000356084
0.000422285
0.000170411
0.000142328
0.00015919
0.000319222
0.000116271
0.000294814
0.000258017
0.000113666
0.000121627
0.000107805
0.000271832
0.000245175
0.000413734
0.000379376
0.000222034
0.000253346
0.000214
0.000384916
0.00205994
0.00269685
0.000309439
0.00611097
0.00249101
0.0047517
0.00197546
0.00168761
0.00513199
0.00369925
0.00213315
0.00199208
0.00180526
0.00391713
0.000955144
0.00310159
0.00293226
0.00134037
0.00114265
0.0011332
0.0022759
0.000428528
0.00133479
0.00132982
0.000627819
0.00051435
0.00052438
0.000953874
0.000176497
0.000519877
0.000528714
0.000260879
0.000210556
0.000217676
0.000377753
8.14213e-05
0.000235991
0.000227804
0.00011058
9.43334e-05
9.44279e-05
0.000181769
7.67917e-05
0.000207645
0.000155221
8.13306e-05
8.73645e-05
7.11794e-05
0.000163474
0.000161959
0.000294372
0.000222016
0.000164513
0.000187316
0.00014283
0.000221159
0.000428478
0.000837351
6.36475e-05
0.00167228
0.000666591
0.000795332
0.000433434
0.000511652
0.00192789
0.000933527
0.00074577
0.000724981
0.000525856
0.000994407
0.000320576
0.00115259
0.000771539
0.000516027
0.000442986
0.000375329
0.000606209
0.000147391
0.000482438
0.000357831
0.000242607
0.000200302
0.000179743
0.000263177
6.54361e-05
0.000200954
0.000154132
0.000104052
8.62783e-05
7.90328e-05
0.000117198
3.47171e-05
0.000105176
7.67903e-05
4.97284e-05
4.43559e-05
3.9065e-05
6.4421e-05
3.11556e-05
9.07571e-05
5.3481e-05
3.9193e-05
4.05576e-05
3.0202e-05
5.33015e-05
4.03967e-05
9.20055e-05
5.51245e-05
5.8575e-05
6.06155e-05
4.07525e-05
4.45768e-05
5.42381e-05
4.02092e-05
8.48786e-05
7.84393e-06
5.18022e-05
3.51273e-05
8.47438e-05
0.000100513
0.000188488
8.93343e-05
0.000160991
8.99085e-05
0.000211958
9.94939e-05
8.7396e-05
0.000216277
8.41799e-05
0.000251038
7.90752e-05
0.000246947
9.29918e-05
6.32183e-05
0.000170949
6.35812e-05
0.000218426
5.76034e-05
0.000195803
6.95919e-05
4.32569e-05
0.000118547
4.36863e-05
0.000157115
3.94116e-05
0.000136666
4.76223e-05
3.07664e-05
7.77713e-05
3.03501e-05
0.000104412
2.79405e-05
9.02897e-05
3.31844e-05
2.4778e-05
5.01605e-05
2.33061e-05
6.73762e-05
2.21675e-05
5.951e-05
2.58122e-05
1.72576e-05
2.25284e-05
1.78691e-05
4.31402e-05
1.49797e-05
2.82369e-05
2.03905e-05
0.000590276
0.000190815
0.000761039
0.000362915
0.000433839
0.000231038
0.00102836
0.0212651
0.0123684
0.118729
0.129677
0.0177783
0.0177378
0.0126799
0.0197973
0.024051
0.126479
0.0116328
0.0246157
0.0195595
0.0117793
0.0204078
0.0252092
0.132188
0.0119317
0.0253019
0.0203068
0.0119931
0.0201267
0.0251606
0.129272
0.0119578
0.0249624
0.0202885
0.0118579
0.0200133
0.0232454
0.121822
0.0116857
0.0214997
0.01962
0.0121569
0.00288971
0.00563555
0.00335697
0.0819252
0.00207259
0.00868272
0.00576003
5.37677e-05
2.01925e-05
6.15025e-05
7.47808e-06
5.20111e-05
3.1486e-05
8.15926e-05
0.000106956
0.000217835
0.000107898
0.000161656
0.000109653
0.000215303
0.000105663
9.24936e-05
0.000262185
0.00010091
0.0002573
9.45706e-05
0.000253441
9.848e-05
6.68806e-05
0.000210343
7.52688e-05
0.00022493
6.84372e-05
0.000201819
7.34695e-05
4.58011e-05
0.000147446
5.1643e-05
0.000162144
4.68835e-05
0.000141066
5.03685e-05
3.27396e-05
9.79268e-05
3.61259e-05
0.000107907
3.35581e-05
9.34119e-05
3.51895e-05
2.66256e-05
6.56922e-05
2.85e-05
7.00832e-05
2.74461e-05
6.21083e-05
2.76177e-05
1.93767e-05
3.20389e-05
2.36821e-05
4.53484e-05
2.02605e-05
2.98054e-05
2.26582e-05
0.000755336
0.00029113
0.0012609
0.000371758
0.000828339
0.00027289
0.00112783
0.0205007
0.0222179
0.0118302
0.128887
0.0201787
0.0209039
0.0122676
0.0128162
0.0105551
0.0100157
0.0108012
0.0104193
0.0128885
0.0108352
0.0129745
0.0104302
0.010017
0.0109063
0.0104402
0.0129405
0.0109355
0.0128926
0.010432
0.0100161
0.0109182
0.0104214
0.0129379
0.0108715
0.0154319
0.0112411
0.010873
0.0108314
0.0136563
0.0134397
0.0115592
0.00374326
0.012267
0.00674467
0.0907217
0.00411024
0.0111062
0.00632733
3.76965e-05
3.98653e-05
8.18684e-05
4.73285e-06
4.57427e-05
3.02743e-05
6.17363e-05
5.8712e-05
0.000174281
7.19648e-05
9.5768e-05
7.26337e-05
0.000124373
5.79114e-05
5.53234e-05
0.00020046
7.04733e-05
0.000144158
6.65684e-05
0.000142854
5.81868e-05
4.20977e-05
0.000158702
5.48206e-05
0.000125925
4.97805e-05
0.000112825
4.6124e-05
2.92363e-05
0.000109632
3.80314e-05
8.93349e-05
3.43682e-05
7.71199e-05
3.23343e-05
2.05979e-05
7.15706e-05
2.64902e-05
5.83159e-05
2.43558e-05
4.97481e-05
2.24664e-05
1.53332e-05
4.60362e-05
1.99587e-05
3.67853e-05
1.86881e-05
3.12653e-05
1.64973e-05
9.20245e-06
2.00309e-05
1.43054e-05
2.04293e-05
1.18014e-05
1.25205e-05
1.12681e-05
0.000166081
0.000136775
0.000618192
0.000198696
0.00025006
0.000100284
0.000351849
0.00291617
0.00524495
0.0854285
0.00216999
0.00892372
0.00176367
0.00600699
0.00641267
0.0156347
0.11612
0.0112111
0.0164514
0.00599461
0.0122481
0.00700657
0.0172484
0.118611
0.0130007
0.0173203
0.006972
0.0125831
0.00680813
0.0171857
0.118034
0.0127193
0.0169576
0.00692168
0.0127186
0.00469876
0.0145958
0.0999502
0.0111501
0.0125414
0.00551404
0.00886067
0.000697428
0.00252507
0.00245836
0.0027035
0.00114035
0.00119431
0.00109829
3.5653e-05
5.16113e-06
6.39585e-05
6.81213e-05
3.50217e-05
4.04737e-05
3.58365e-05
3.8242e-05
1.06841e-05
7.23614e-05
0.000135356
7.10487e-05
5.1756e-05
3.62665e-05
4.72026e-05
8.33572e-05
9.2555e-05
7.32789e-05
5.34479e-05
6.36732e-05
4.97282e-05
3.78113e-05
4.72331e-06
3.97639e-05
8.15253e-05
3.04003e-05
6.13156e-05
4.58081e-05
4.92007e-05
8.43075e-05
5.92105e-05
6.77046e-05
4.38107e-05
5.45296e-05
6.0438e-05
5.09618e-05
0.000165021
0.00011679
8.62128e-05
8.53715e-05
7.03188e-05
6.27116e-05
4.61018e-05
2.23639e-05
9.5395e-05
0.000116238
0.000105639
4.6245e-05
8.96262e-05
6.16705e-05
9.16551e-05
0.000211425
8.28048e-05
5.87695e-05
8.77667e-05
0.000111765
6.43628e-05
0.000123247
0.000220346
9.30212e-05
6.44258e-05
9.26073e-05
0.00011573
5.88615e-05
9.60673e-05
0.000174711
7.21048e-05
0.000124704
5.80494e-05
7.28113e-05
6.01302e-05
0.000143534
0.000183298
7.18302e-05
0.000130782
5.88696e-05
7.37747e-05
4.24046e-05
2.26628e-05
8.27946e-05
0.000105781
0.000113526
3.98564e-05
8.98744e-05
6.16005e-05
0.000122697
0.000226505
9.23722e-05
6.41048e-05
8.86605e-05
0.000118375
5.8776e-05
0.0001049
0.00021771
7.74329e-05
5.45166e-05
8.38674e-05
0.000114858
5.54397e-05
0.000144422
0.000200912
7.05792e-05
0.00014315
5.82913e-05
6.67101e-05
5.32297e-05
0.000131013
0.000196648
5.888e-05
0.000140264
4.92867e-05
6.37635e-05
3.16251e-05
1.58728e-05
5.92612e-05
7.59542e-05
8.67156e-05
2.88872e-05
6.74245e-05
4.6038e-05
0.000100304
0.000157375
7.05026e-05
5.04683e-05
6.37568e-05
8.87194e-05
4.19952e-05
7.36035e-05
0.000147454
5.12953e-05
3.78682e-05
5.72453e-05
8.4171e-05
4.21797e-05
0.000126104
0.000159018
5.48977e-05
0.000113019
4.6198e-05
4.98828e-05
3.90156e-05
9.45875e-05
0.000151277
4.16534e-05
0.000107614
3.5281e-05
4.60327e-05
2.19495e-05
9.4461e-06
3.9861e-05
4.96051e-05
5.81184e-05
2.00008e-05
4.604e-05
3.1023e-05
6.95787e-05
0.000100003
4.55846e-05
3.42998e-05
4.09449e-05
6.03902e-05
2.81858e-05
4.94311e-05
9.37522e-05
3.34009e-05
2.55786e-05
3.675e-05
5.69573e-05
2.92896e-05
8.94395e-05
0.000109814
3.80817e-05
7.72316e-05
3.23825e-05
3.44364e-05
2.68818e-05
6.22412e-05
0.000103143
2.87738e-05
7.26116e-05
2.4381e-05
3.15652e-05
1.54476e-05
5.16504e-06
2.61591e-05
3.11812e-05
3.69158e-05
1.41991e-05
3.04571e-05
2.15553e-05
4.65831e-05
6.67606e-05
3.0275e-05
2.34252e-05
2.79723e-05
4.0425e-05
2.00087e-05
3.2938e-05
6.32272e-05
2.45776e-05
1.8591e-05
2.59917e-05
3.80404e-05
2.06354e-05
5.8346e-05
7.16508e-05
2.65239e-05
4.97768e-05
2.24989e-05
2.44035e-05
1.91785e-05
3.94341e-05
6.69303e-05
2.12118e-05
4.65154e-05
1.77036e-05
2.27938e-05
1.09748e-05
2.76938e-06
1.53412e-05
1.79038e-05
2.27944e-05
9.71404e-06
1.94863e-05
1.63375e-05
3.09452e-05
4.78099e-05
2.32821e-05
1.7428e-05
2.22402e-05