/*--------------------------------*- C++ -*----------------------------------*\
| =========                 |                                                 |
| \\      /  F ield         | OpenFOAM: The Open Source CFD Toolbox           |
|  \\    /   O peration     | Version:  2.4.0                                 |
|   \\  /    A nd           | Web:      www.OpenFOAM.org                      |
|    \\/     M anipulation  |                                                 |
\*---------------------------------------------------------------------------*/
FoamFile
{
    version     2.0;
    format      ascii;
    class       volScalarField;
    location    "60";
    object      k;
}
// * * * * * * * * * * * * * * * * * * * * * * * * * * * * * * * * * * * * * //

dimensions      [0 2 -2 0 0 0 0];

internalField   nonuniform List<scalar> 
43096
(
2.59826e-05
0.000142403
0.000178947
0.00015295
0.000113161
8.32431e-05
5.28569e-05
3.18249e-05
0.000187885
0.000930557
0.00117
0.000961355
0.000697754
0.000516496
0.000410739
0.000325999
0.000405056
0.00332286
0.00359262
0.00242968
0.00148001
0.000949939
0.000768002
0.000843242
0.00119857
0.00741926
0.00679111
0.00434898
0.00248132
0.00141912
0.00106437
0.0013272
0.00128403
0.00953799
0.00873503
0.00557824
0.00311059
0.00168932
0.00118796
0.00148881
0.00127525
0.00954542
0.00869263
0.00546429
0.00299124
0.00160315
0.00112265
0.00143132
0.00119567
0.00751792
0.006604
0.00397442
0.00215117
0.00118666
0.000882002
0.00113721
0.000579818
0.00387397
0.0034142
0.00200705
0.00110162
0.000661468
0.000519015
0.000575212
8.09361e-05
0.000727587
0.00095689
0.000870054
0.00069488
0.000526762
0.000388953
0.000280107
0.0012157
0.0142697
0.0108463
0.00737005
0.004928
0.00368437
0.00378332
0.00320606
0.116035
0.0499219
0.026531
0.0148179
0.00858432
0.00584736
0.00737882
0.0110205
0.141884
0.06734
0.0395482
0.0220007
0.0120403
0.00754835
0.00958295
0.0173374
0.142125
0.0698703
0.0427158
0.0243549
0.0132634
0.00805146
0.00995726
0.0185291
0.142202
0.0676902
0.0397377
0.021809
0.0116648
0.00716079
0.00927398
0.0181533
0.142019
0.0514224
0.0272361
0.0144539
0.00783601
0.00507734
0.00659303
0.0147889
0.0310618
0.0240512
0.016077
0.0091624
0.00516373
0.00325596
0.00305334
0.00501735
5.01348e-05
0.000774604
0.00108368
0.000996178
0.000801816
0.000611419
0.000459439
0.000346163
0.00137249
0.0142663
0.0108428
0.00736715
0.00492573
0.00368245
0.00378099
0.00391184
0.143137
0.0499149
0.0265255
0.0148137
0.00858112
0.00584461
0.0073735
0.0148652
0.100141
0.0673323
0.0395413
0.0219955
0.0120364
0.00754522
0.00957718
0.0236652
0.10007
0.0698621
0.0427085
0.0243494
0.0132593
0.00804835
0.00995188
0.0251508
0.100073
0.0676839
0.0397317
0.0218041
0.0116611
0.00715798
0.00926883
0.0247343
0.100209
0.0514184
0.0272316
0.0144499
0.00783313
0.00507535
0.00658945
0.0204818
0.0587674
0.0277462
0.0176839
0.00996637
0.00561115
0.00355706
0.0034536
0.00656004
7.77315e-05
0.000691097
0.000906261
0.000826584
0.000659956
0.000499258
0.00036876
0.00026092
0.00115287
0.00639766
0.00632586
0.00485745
0.00341751
0.00251728
0.00217997
0.0021188
0.028953
0.0242604
0.0173196
0.0107582
0.00646706
0.00421358
0.00388775
0.00590804
0.064312
0.04245
0.029285
0.0174732
0.00984248
0.00584004
0.0051905
0.00899144
0.065955
0.0482994
0.034509
0.0206779
0.0114501
0.00660267
0.00562335
0.0097383
0.0659653
0.0471128
0.0328672
0.0192698
0.0105094
0.00603657
0.0052607
0.00939042
0.0640277
0.0360811
0.0236656
0.0135179
0.00739033
0.004394
0.00400611
0.0073348
0.019091
0.0160548
0.0121014
0.00719876
0.00411044
0.00258258
0.00224649
0.00293164
0.000130778
0.000167903
0.00074667
7.77882e-05
0.000635526
0.000992921
0.00291621
0.000178724
0.000800207
0.00100926
0.000691804
0.000903666
0.00352052
0.00376604
0.000160383
0.00100573
0.00087904
0.000907123
0.000849228
0.00374467
0.00350395
0.000120798
0.000845558
0.000657097
0.000827238
0.000685735
0.00313013
0.00274783
8.5293e-05
0.000627776
0.000489947
0.00066035
0.000521681
0.00237794
0.00207389
5.53777e-05
0.000470059
0.000383244
0.0004994
0.000386792
0.00181816
0.00162949
3.47575e-05
0.000369778
0.000299115
0.000368724
0.000280914
0.00147654
0.00135209
4.80596e-06
0.000280482
2.40978e-05
0.000260864
2.86408e-05
0.00114542
0.000291561
0.00086261
0.000367372
0.00251434
0.00115244
0.00547625
0.015192
0.0118941
0.00117644
0.00274103
0.00323018
0.00640223
0.00669055
0.0116344
0.0116337
0.00100173
0.00311563
0.00234853
0.00633
0.00575079
0.0102805
0.0090271
0.000731602
0.00218529
0.00146272
0.00486075
0.00415142
0.00719936
0.00599678
0.00053787
0.00136051
0.000940091
0.00341977
0.00293102
0.00468754
0.00393332
0.000423779
0.000891236
0.000734295
0.00251875
0.00230044
0.00327688
0.00301526
0.000343289
0.00072288
0.000757869
0.00218103
0.00215315
0.00296474
0.00314053
3.19417e-05
0.00076384
0.000117749
0.00211989
0.000360857
0.00372712
0.00241203
0.00305044
0.00104227
0.00667535
0.028955
0.0276263
0.0635025
0.0431962
0.00375193
0.00690582
0.00670113
0.0242688
0.021686
0.0342563
0.029734
0.00261507
0.00633085
0.00439761
0.0173275
0.0140267
0.0229028
0.0184898
0.00159263
0.00407388
0.00254128
0.0107644
0.00848085
0.0137905
0.0108146
0.00100287
0.00234979
0.00145354
0.006471
0.00517666
0.0080197
0.00632777
0.000776994
0.00136508
0.00104271
0.00421583
0.00380823
0.0050213
0.00446452
0.000827737
0.00103484
0.00122402
0.00388973
0.00446597
0.00458388
0.00541413
0.000132292
0.00127951
0.000216674
0.00591419
0.0050324
0.00783356
0.0124771
0.00716529
0.00129975
0.00905709
0.0643153
0.051828
0.0656975
0.055719
0.0071814
0.00940986
0.00909009
0.0424641
0.0370499
0.0467404
0.0410756
0.00468109
0.00859619
0.00587728
0.0292964
0.0232261
0.032678
0.0260394
0.00268071
0.00548756
0.00331759
0.017482
0.0133071
0.0194105
0.0148139
0.00151273
0.00306407
0.00179142
0.00984836
0.00751063
0.0107969
0.00822599
0.00107156
0.00167304
0.00119773
0.00584321
0.00506896
0.0063369
0.0054226
0.00126501
0.00118375
0.00141335
0.00519264
0.00625845
0.00550462
0.00663955
0.000223948
0.00148309
0.000247002
0.00900002
0.0128233
0.00956403
0.013645
0.00916711
0.00126352
0.00921247
0.0659659
0.0569988
0.0660416
0.0569873
0.00923156
0.00960495
0.00930549
0.0483193
0.0427128
0.048388
0.0428085
0.00596873
0.00879709
0.00596001
0.034522
0.027492
0.0345719
0.0275033
0.00336621
0.0055556
0.00331857
0.0206874
0.0157007
0.0206512
0.0156375
0.00180974
0.00305567
0.00176091
0.0114566
0.00864129
0.0113817
0.00855388
0.00120166
0.0016383
0.00115698
0.0066063
0.00558629
0.0065132
0.00550043
0.00141589
0.00114344
0.00137845
0.0056253
0.00678314
0.00554515
0.00671122
0.000247196
0.00145099
0.000233732
0.00974635
0.0136604
0.00969713
0.0136504
0.00916242
0.00123578
0.00771048
0.0659681
0.0559606
0.0647066
0.0525589
0.00920129
0.00797059
0.00746617
0.0471274
0.0414286
0.043424
0.0378363
0.00586894
0.00702684
0.00463776
0.0328788
0.0260846
0.0297402
0.0233538
0.00325252
0.00425529
0.00251347
0.019279
0.0146062
0.0172967
0.0129781
0.00172235
0.0023028
0.00135232
0.0105157
0.00794174
0.00941659
0.00706452
0.00113401
0.00125819
0.000934675
0.00603989
0.00515592
0.00539652
0.00464955
0.00135686
0.000926855
0.0011344
0.00526227
0.0064051
0.0047918
0.00587851
0.000228664
0.00119989
0.000189371
0.00939818
0.0136005
0.00870111
0.0127378
0.00729095
0.000700182
0.00425231
0.0640296
0.0450323
0.0320037
0.0312817
0.0070263
0.00445317
0.00411559
0.0360891
0.031155
0.0273101
0.0237055
0.00434718
0.00387237
0.00247571
0.0236744
0.0187354
0.0183484
0.0143002
0.00235507
0.00226226
0.00134172
0.0135253
0.0103483
0.0104843
0.00792448
0.00127431
0.0012288
0.000776535
0.00739519
0.00570658
0.00578998
0.00446969
0.000888638
0.000728082
0.000579295
0.00439625
0.00387793
0.00352122
0.0031269
0.00107452
0.000571263
0.000639659
0.004007
0.00481478
0.0032122
0.00376731
0.000178661
0.000658396
8.79341e-05
0.00734218
0.0123496
0.00521241
0.00467673
0.00369706
4.86947e-05
0.000475505
0.0190913
0.0162452
0.000460252
0.00322001
0.00361831
0.000490065
0.000443112
0.0160604
0.014804
0.00336597
0.00315864
0.00219325
0.00042268
0.000275783
0.0121078
0.00955011
0.00300506
0.00200645
0.00120145
0.000257405
0.000156526
0.00720381
0.00546549
0.00186105
0.00117173
0.000704533
0.00014552
8.98391e-05
0.00411335
0.00320403
0.00108442
0.000719261
0.000526771
8.41998e-05
5.89706e-05
0.00258377
0.00228121
0.000674857
0.000528165
0.000564271
5.66797e-05
4.95404e-05
0.00224665
0.00248281
0.000515269
0.000552455
7.3895e-05
4.81212e-05
8.07694e-06
0.00293306
0.00199224
0.000559391
7.2543e-05
0.000665823
0.00104313
0.00388647
4.89472e-05
0.000690899
0.00112003
0.00430302
0.000951879
0.00489361
0.00502352
0.000774386
0.00107735
0.00529481
0.00544591
0.000891942
0.00487665
0.00447691
0.00108352
0.00102061
0.00528119
0.00486278
0.000720188
0.00394002
0.00343381
0.000995976
0.000830584
0.00427511
0.0037362
0.000549299
0.00296291
0.00258117
0.000801584
0.000637091
0.00321677
0.00280905
0.000407949
0.00226365
0.00204419
0.000611192
0.000480393
0.00246282
0.00223452
0.000300049
0.00186905
0.00178928
0.000459212
0.000368581
0.00206771
0.00200618
3.07703e-05
0.00159467
0.000327552
0.000345923
3.76642e-05
0.00186995
0.000451726
0.00881329
0.0270324
0.0232111
0.00137183
0.0109165
0.0552732
0.0322824
0.000406489
0.00617009
0.0052769
0.00391279
0.000580187
0.00797207
0.0123148
0.062284
0.141901
0.0869806
0.143139
0.083162
0.100207
0.0970605
0.00935141
0.015253
0.0251195
0.014866
0.0242006
0.0209689
0.0523079
0.093946
0.142128
0.0960845
0.10014
0.0969335
0.100069
0.0971882
0.0253991
0.0182654
0.0270017
0.0236626
0.0527403
0.0248378
0.0551795
0.0968354
0.142154
0.0969168
0.10007
0.0974338
0.100072
0.0975103
0.0269932
0.018478
0.0269881
0.0251471
0.0551595
0.0251082
0.0551781
0.0962135
0.141919
0.0941958
0.100072
0.0974069
0.100144
0.0972323
0.0269373
0.0170686
0.0252884
0.0247304
0.0550996
0.0234066
0.0526535
0.0876711
0.115674
0.0646851
0.100208
0.0975468
0.14224
0.0846576
0.0249396
0.0101611
0.00879908
0.0204775
0.0521056
0.0139012
0.0234535
0.0280175
0.000509738
0.00354277
0.0587675
0.0364695
0.000514853
0.00437927
0.0208122
0.00370277
0.00342167
0.0277468
0.0233891
0.00452087
0.00400995
0.0124175
0.00324842
0.00214139
0.0176853
0.0136031
0.0037837
0.00247192
0.00693498
0.00198575
0.00124622
0.00996761
0.00755448
0.00228791
0.00145216
0.00404733
0.00115396
0.000765884
0.00561184
0.00441193
0.00134487
0.00090093
0.00295411
0.000718758
0.000567721
0.0035572
0.00326026
0.000845461
0.000693622
0.00364331
0.000554345
0.000615609
0.0034532
0.00430054
0.000684516
0.000857631
0.00468864
0.000630459
8.37282e-05
0.00655633
0.0115935
0.000905414
0.000134995
0.000690576
0.00111995
0.00430264
8.10399e-05
0.000665428
0.00104393
0.00388465
0.00107681
0.00529378
0.00544463
0.00072651
0.000951237
0.00489066
0.00502055
0.00102008
0.00528001
0.00486156
0.00095555
0.00089139
0.00487359
0.00447413
0.000830128
0.00427408
0.00373521
0.000868893
0.000719809
0.00393734
0.00343152
0.000636741
0.00321595
0.00280825
0.000693963
0.000549114
0.00296073
0.00257934
0.000480125
0.00246224
0.00223393
0.000526133
0.000407938
0.00226196
0.00204283
0.000368391
0.00206733
0.00200556
0.000388557
0.00030005
0.00186781
0.00178835
3.76292e-05
0.0018689
0.000451462
0.000279775
3.07818e-05
0.0015941
0.00032755
0.0109154
0.0552715
0.0322789
0.00121558
0.00881038
0.0270303
0.0232062
0.000579886
0.00796474
0.0123025
0.0032026
0.000406419
0.00616497
0.00527118
0.0831566
0.100207
0.0970579
0.116038
0.0622752
0.141898
0.0869706
0.0241747
0.0209571
0.0522577
0.0110018
0.00934107
0.0152312
0.0250971
0.096933
0.100069
0.0971868
0.141884
0.0939348
0.142126
0.0960711
0.0526956
0.0248271
0.0551325
0.0173079
0.0253769
0.018242
0.0269841
0.097433
0.100072
0.0975087
0.142123
0.0968205
0.142144
0.0969028
0.0551176
0.025098
0.0551312
0.0184998
0.0269752
0.0184547
0.0269707
0.0974063
0.100144
0.0972312
0.142204
0.096201
0.141913
0.094187
0.0550576
0.0233969
0.0526033
0.0181237
0.0269192
0.0170444
0.0252667
0.0975459
0.142242
0.0846555
0.142026
0.0876667
0.115669
0.0646834
0.0520604
0.0138964
0.0234269
0.0147611
0.0249171
0.0101456
0.00878946
0.036469
0.000518892
0.00437917
0.0310614
0.0280161
0.000509943
0.00354208
0.0233873
0.00452068
0.00400948
0.0240474
0.0208078
0.00370184
0.00342002
0.0136011
0.00378325
0.00247142
0.0160716
0.0124128
0.00324671
0.00213996
0.00755287
0.00228748
0.00145177
0.00915757
0.00693147
0.0019843
0.00124538
0.00441078
0.00134453
0.000900602
0.00516038
0.00404518
0.00115313
0.000765432
0.00325934
0.000845186
0.000693313
0.00325373
0.00295285
0.000718331
0.000567586
0.00429903
0.000684247
0.000857142
0.00305093
0.00364081
0.000554216
0.000615513
0.0115824
0.000904976
0.00013484
0.00500826
0.00468314
0.000630311
8.37578e-05
0.000634321
0.000992859
0.00291137
2.56743e-05
0.000140426
0.000169345
0.000744867
0.00090211
0.00351606
0.00376183
0.00015399
0.000188178
0.000798637
0.00100847
0.000847866
0.00374072
0.00350027
0.000190903
0.000155767
0.00100499
0.000878711
0.000684695
0.00312681
0.00274492
0.000151222
0.000122638
0.000845275
0.000657012
0.000520987
0.00237534
0.00207166
0.000119169
8.14941e-05
0.000627716
0.000489976
0.000386372
0.00181612
0.00162779
7.81709e-05
5.70446e-05
0.000470122
0.000383381
0.000280633
0.00147491
0.0013509
5.53387e-05
3.75201e-05
0.000369968
0.000299277
2.86019e-05
0.00114431
0.00029131
3.15948e-05
5.05747e-06
0.000280671
2.41334e-05
0.00547071
0.0151891
0.0118885
0.000198891
0.000860952
0.00036761
0.00251282
0.00668582
0.0116287
0.0116278
0.000928567
0.00117566
0.00273956
0.00322833
0.00574653
0.0102746
0.00902158
0.00116874
0.00100132
0.00311395
0.00234703
0.00414822
0.0071945
0.00599265
0.000960505
0.000731482
0.00218402
0.00146196
0.00292877
0.00468422
0.00393069
0.000697191
0.000537908
0.00135999
0.000939986
0.00229874
0.00327459
0.00301337
0.000516104
0.000423952
0.000891295
0.000734509
0.00215172
0.00296235
0.00313798
0.000410513
0.00034349
0.000723274
0.000758125
0.00036055
0.00372089
0.0024052
0.000325828
3.20057e-05
0.000764197
0.000117692
0.0276181
0.0635012
0.0431837
0.000403571
0.003049
0.00108371
0.00667241
0.0216772
0.0342448
0.0297226
0.00332059
0.00374979
0.0069027
0.00669756
0.0140191
0.0228925
0.0184807
0.00358978
0.0026133
0.00632745
0.00439449
0.00847541
0.0137825
0.010808
0.00242744
0.00159168
0.00407091
0.00253926
0.00517321
0.00801429
0.00632367
0.00147872
0.00100269
0.00234802
0.00145277
0.00380573
0.00501794
0.00446189
0.000949323
0.000777202
0.00136451
0.0010428
0.00446176
0.00458048
0.00540894
0.00076753
0.000827996
0.00103512
0.00122409
0.00502199
0.00781679
0.0124547
0.000842437
0.000132199
0.00127957
0.00021634
0.0518108
0.0656871
0.0556963
0.00118056
0.00716228
0.00130122
0.00905133
0.0370366
0.0467223
0.0410605
0.0074146
0.0071776
0.00940408
0.00908513
0.0232156
0.032665
0.0260281
0.00678607
0.00467785
0.00859149
0.0058732
0.0132994
0.0194008
0.0148057
0.00434476
0.00267865
0.00548367
0.00331488
0.00750574
0.0107901
0.00822079
0.00247864
0.00151194
0.00306154
0.00179023
0.00506584
0.00633286
0.00541958
0.00141781
0.00107165
0.00167203
0.00119765
0.00625311
0.00550116
0.0066341
0.0010636
0.00126516
0.0011838
0.00141334
0.0128022
0.00954609
0.013625
0.00132559
0.00022357
0.00148294
0.000246631
0.0569708
0.0660359
0.0569599
0.00128602
0.00916111
0.0011361
0.00920693
0.0426963
0.0483681
0.0427927
0.00952985
0.00922646
0.00959925
0.00930023
0.0274802
0.0345583
0.0274915
0.00872837
0.00596466
0.00879202
0.00595575
0.015692
0.0206411
0.0156289
0.00557299
0.00336356
0.00555156
0.00331568
0.00863572
0.0113747
0.0085484
0.00310708
0.00180859
0.00305297
0.00175957
0.00558295
0.00650899
0.00549743
0.00168758
0.00120161
0.00163715
0.00115686
0.00677783
0.00554195
0.00670571
0.00118699
0.00141601
0.00114347
0.00137834
0.0136416
0.00967952
0.0136307
0.00148697
0.000246788
0.00145073
0.00023336
0.055942
0.0647056
0.052546
0.00120883
0.00915846
0.00123802
0.0077083
0.041415
0.0434125
0.037825
0.00953885
0.00919623
0.00796805
0.00746206
0.0260735
0.0297291
0.0233437
0.00868576
0.00586482
0.00702284
0.00463417
0.0145978
0.0172874
0.0129704
0.00545906
0.00324979
0.00425182
0.00251119
0.00793639
0.0094102
0.0070598
0.00298774
0.00172114
0.0023007
0.00135142
0.00515293
0.00539308
0.00464719
0.00160142
0.00113398
0.00125744
0.000934641
0.00640035
0.00478926
0.00587356
0.00112182
0.00135692
0.000926903
0.00113424
0.0135816
0.00868393
0.012716
0.00142956
0.00022828
0.00119952
0.000189055
0.0450247
0.0320027
0.0312766
0.00119599
0.00728928
0.000649053
0.00425064
0.0311456
0.0273031
0.0236977
0.00751434
0.00702237
0.00445121
0.00411279
0.0187263
0.0183403
0.0142926
0.00659858
0.00434382
0.00386969
0.00247366
0.0103415
0.0104776
0.00791898
0.0039702
0.00235301
0.00226041
0.00134077
0.00570259
0.0057858
0.00446661
0.00214859
0.00127355
0.00122801
0.000776306
0.00387577
0.00351913
0.00312538
0.00118546
0.000888664
0.000727937
0.000579354
0.00481088
0.00321082
0.00376432
0.000881267
0.0010745
0.00057136
0.000639649
0.0123286
0.00520279
0.00466691
0.0011356
0.000178391
0.000658335
8.78561e-05
0.0162407
0.00046026
0.00321848
0.000570115
0.00369557
4.87718e-05
0.000474897
0.0147969
0.00336425
0.00315607
0.00387129
0.00361575
0.000489421
0.000442355
0.00954339
0.00300255
0.00200425
0.00341067
0.00219143
0.000421953
0.000275268
0.00546082
0.00185896
0.00117028
0.00200468
0.00120067
0.000256911
0.000156263
0.0032013
0.00108312
0.000718352
0.00110043
0.000704384
0.000145262
8.97185e-05
0.00227953
0.000674072
0.000527571
0.000660899
0.000526872
8.40768e-05
5.89187e-05
0.00248061
0.000514749
0.00055179
0.000518567
0.00056435
5.66252e-05
4.9514e-05
0.00198675
0.000558773
7.24143e-05
0.000574475
7.38479e-05
4.80958e-05
7.62832e-06
0.000817478
2.55532e-05
8.46731e-05
6.02176e-05
0.00022029
0.00035727
0.000221373
0.00155078
0.000167233
0.000450162
0.000479803
0.000570398
0.00144874
0.000515349
0.00166344
0.000175374
0.000548977
0.000630637
0.000626371
0.00167637
0.000537933
0.00143809
0.000140462
0.00048656
0.000574561
0.000533056
0.00150721
0.000450498
0.00113809
0.000100329
0.000385502
0.000454956
0.000411369
0.00120821
0.000350899
0.000881074
6.73929e-05
0.000294533
0.000340236
0.000304915
0.000936855
0.000266829
0.000678033
4.7981e-05
0.000221429
0.000248432
0.000221939
0.000723103
0.000199232
0.000405743
2.46007e-05
0.000148606
0.000164749
0.000117683
0.000495651
0.000105325
0.00281124
0.000518847
0.000253266
0.000779755
0.00214276
0.00108756
0.000737206
0.00502193
0.00109755
0.00142332
0.00355409
0.00382118
0.00467959
0.00169904
0.00502151
0.00112875
0.00176778
0.00399842
0.00390964
0.00515528
0.00168759
0.00374948
0.000863014
0.00137646
0.00325161
0.00303844
0.00403485
0.00121168
0.00259295
0.000623468
0.000935847
0.00235353
0.0021853
0.00281044
0.00081991
0.00192024
0.000472887
0.000662972
0.00174693
0.00165237
0.00203437
0.000605304
0.0016753
0.000385173
0.000538265
0.00144183
0.00140078
0.00170239
0.000519799
0.0014605
0.000253796
0.00048392
0.0012386
0.00109899
0.00159252
0.00040564
0.0133479
0.0016648
0.00060155
0.00285829
0.00932192
0.00530993
0.00281948
0.0164998
0.0038873
0.00490306
0.0128007
0.013207
0.016249
0.00539014
0.0127158
0.00320898
0.00472453
0.0115975
0.0107031
0.0138931
0.00412985
0.00798153
0.00203517
0.00308253
0.0077158
0.0068935
0.00896009
0.0025538
0.00478463
0.00124059
0.00182877
0.00473752
0.00422634
0.00538813
0.00150589
0.00314101
0.00084641
0.00112633
0.00307143
0.0028466
0.00341288
0.000985607
0.00291933
0.000774662
0.00089052
0.00259012
0.00263743
0.00284633
0.000910968
0.00370875
0.000786336
0.00105043
0.00317314
0.00315918
0.00364968
0.00102151
0.0254152
0.00498432
0.00128391
0.00882344
0.0237095
0.00956707
0.00569021
0.0280665
0.00784302
0.00852785
0.0261609
0.0258769
0.0283602
0.00895289
0.020877
0.00585005
0.00777006
0.0212286
0.019193
0.0231066
0.00666038
0.0126081
0.00354524
0.00496938
0.0132827
0.0116448
0.0144109
0.00402234
0.00707318
0.00198614
0.00278939
0.00760283
0.00660953
0.00816117
0.00220732
0.00422054
0.00120462
0.00155592
0.00444084
0.00400396
0.00470306
0.00130499
0.00379346
0.0010956
0.0011344
0.00352446
0.00363807
0.00367243
0.00116724
0.00532192
0.00132822
0.00142199
0.00490275
0.00508816
0.00511616
0.00142843
0.0272917
0.00606513
0.001167
0.00995968
0.0273674
0.00955414
0.00583946
0.0320502
0.0100384
0.00966148
0.0319254
0.0317329
0.0321903
0.0102017
0.0242632
0.00746066
0.00891626
0.026467
0.0239405
0.0268105
0.00761214
0.0146165
0.00449989
0.00569163
0.016545
0.0144221
0.0167668
0.00459118
0.00805237
0.00243698
0.00316708
0.00926434
0.00796395
0.00937271
0.0024785
0.00463896
0.00139712
0.00171006
0.00519164
0.00461453
0.0052262
0.00140761
0.00402696
0.00121611
0.00118901
0.00390716
0.00401959
0.00391168
0.0012168
0.00568914
0.00149775
0.00149103
0.00544913
0.00567069
0.00545811
0.00150207
0.0268805
0.00591434
0.00137025
0.00971529
0.0271484
0.00982066
0.00592903
0.0303968
0.0100485
0.00912543
0.0315647
0.0313462
0.0306939
0.00955003
0.0224047
0.00740068
0.00817023
0.025882
0.0233355
0.0248857
0.00694596
0.0132037
0.00438187
0.00506642
0.0159436
0.013847
0.0152144
0.00404795
0.00716751
0.00232843
0.00274824
0.00877779
0.00753089
0.00835817
0.00214204
0.00413825
0.0013183
0.00147889
0.00488025
0.00433109
0.0046495
0.00122506
0.00368851
0.00115323
0.00105798
0.00369586
0.00381516
0.00356253
0.00109213
0.0053443
0.00144545
0.00136095
0.00525782
0.00549023
0.00510669
0.00137695
0.0201907
0.00513734
0.00099636
0.00887138
0.0229049
0.00750263
0.00417489
0.0216425
0.00784186
0.00630886
0.0246396
0.0242571
0.0219972
0.00655084
0.0152541
0.00560186
0.00539844
0.0192723
0.0173022
0.0170344
0.00455821
0.00878316
0.00319142
0.00318446
0.0114706
0.0100158
0.0101031
0.00255089
0.00482158
0.00170037
0.00172
0.00629964
0.00546717
0.00556151
0.00137362
0.00293043
0.00100048
0.000978312
0.00361546
0.0032588
0.0032327
0.00083997
0.00271433
0.000912016
0.000752766
0.00289032
0.002992
0.0026246
0.000777306
0.00388234
0.0011505
0.000951146
0.00415538
0.00434548
0.00372705
0.000950323
0.00672201
0.00235396
0.000346408
0.00373444
0.00937255
0.00227585
0.00151775
0.0093044
0.00408428
0.00252289
0.0119567
0.0120394
0.00920614
0.00263078
0.00706344
0.00289633
0.00222019
0.00984171
0.00894702
0.00776745
0.00188975
0.00421112
0.00161862
0.00132843
0.00594789
0.00524422
0.00477907
0.00108167
0.00244637
0.00090075
0.000755982
0.00337246
0.00298735
0.00275886
0.000629169
0.0015967
0.000582645
0.000473617
0.0020797
0.00192074
0.00172757
0.000420697
0.00140515
0.000525064
0.000370437
0.00170224
0.00172568
0.00139767
0.000368915
0.00145317
0.000529479
0.000376477
0.00199348
0.00194626
0.00152758
0.000327024
0.00142965
0.000309605
0.000508888
8.54084e-05
0.00139669
0.000282948
0.000508397
0.0030049
0.00086301
0.00262984
0.000777026
0.00280069
0.000933311
0.00281308
0.00314043
0.00094536
0.00297344
0.0010445
0.0029272
0.00103283
0.00318838
0.00265037
0.000807499
0.00260369
0.000951164
0.00247685
0.000883851
0.00278447
0.00207898
0.00063187
0.00206356
0.000762555
0.00194413
0.000694503
0.00220463
0.00161408
0.000476406
0.00159665
0.000579959
0.00150723
0.000526055
0.00170709
0.00128679
0.000354848
0.00124954
0.000432111
0.00119015
0.000397453
0.00134515
0.000894827
0.000208104
0.000954534
0.000320383
0.000808474
0.00024181
0.00104905
0.0089449
0.0045105
0.00218687
0.00133455
0.00756294
0.00505147
0.00267343
0.117129
0.0729843
0.141364
0.143824
0.0957519
0.0944722
0.109083
0.122429
0.120836
0.14195
0.105957
0.122616
0.121573
0.106484
0.124269
0.124752
0.142195
0.107017
0.125
0.123997
0.107233
0.123475
0.12458
0.142067
0.107111
0.12397
0.123959
0.106763
0.12023
0.117854
0.141398
0.106134
0.111541
0.121055
0.107602
0.0280504
0.0434825
0.00593772
0.0515379
0.0224608
0.0570587
0.00851812
0.00140906
0.000193478
0.000406455
8.28205e-05
0.00137515
0.00026275
0.000495417
0.00312375
0.000950495
0.00294643
0.000779157
0.00316164
0.000943131
0.00291616
0.00328193
0.00107507
0.00338685
0.00106191
0.00333766
0.00105096
0.00333072
0.00277169
0.000927116
0.00296614
0.000970046
0.00282328
0.000901925
0.00291131
0.00217416
0.000730571
0.00235135
0.000778773
0.00221651
0.000709367
0.00230544
0.00168998
0.000555321
0.0018234
0.00059286
0.00172427
0.000538127
0.00178643
0.00136051
0.000424507
0.00145091
0.000443617
0.00139221
0.00040894
0.00141817
0.000967625
0.000263005
0.00116381
0.000331218
0.000999159
0.000250667
0.00112846
0.0103261
0.00568976
0.00306228
0.00135585
0.0109604
0.00545408
0.00284331
0.120316
0.11184
0.106555
0.143775
0.120942
0.1073
0.107909
0.106567
0.0997853
0.100066
0.102994
0.0993583
0.106725
0.103104
0.107134
0.0995175
0.100073
0.103371
0.0995613
0.10703
0.103483
0.106878
0.099531
0.100068
0.103418
0.0994788
0.107044
0.103243
0.11259
0.101632
0.103188
0.103096
0.108176
0.107898
0.105676
0.0329355
0.0716163
0.00946363
0.0551683
0.0350968
0.0672146
0.00906979
0.00111214
0.000307746
0.000496769
6.11642e-05
0.00129315
0.00025623
0.000412408
0.00207183
0.000819087
0.00228087
0.000550392
0.00243442
0.000655163
0.00194148
0.00220034
0.000898719
0.00260587
0.000722819
0.00257644
0.000718329
0.00222313
0.00189151
0.000768469
0.00231395
0.000660139
0.00220597
0.000613337
0.00198282
0.00148962
0.000599857
0.00184175
0.000524646
0.00173545
0.000475477
0.00158065
0.00115208
0.000450839
0.00142476
0.000394409
0.00134333
0.000354577
0.00122238
0.000896278
0.000335275
0.00111163
0.000289653
0.00105285
0.000259718
0.00094992
0.000562253
0.000192514
0.000816788
0.000195337
0.000685379
0.000141036
0.000676421
0.00422909
0.00377845
0.00190368
0.000894728
0.00554211
0.00300585
0.00130898
0.028127
0.0406402
0.052985
0.00442369
0.0575984
0.0198041
0.00875272
0.0488586
0.0853647
0.0650584
0.0132772
0.0883755
0.0465524
0.0140792
0.0519695
0.0918546
0.0659504
0.0146465
0.0920897
0.0518951
0.0143299
0.0510419
0.0915368
0.0657634
0.0144291
0.0906753
0.0516086
0.014434
0.0394553
0.0814261
0.0588447
0.0132286
0.073802
0.044191
0.0113522
0.0104639
0.0259786
0.00482139
0.00513697
0.0152268
0.015849
0.00281782
0.00109288
6.33716e-05
0.000420808
0.00043946
0.000282097
0.00130349
0.000285549
0.00124929
0.0001056
0.000456207
0.000694362
0.000452895
0.00165276
0.000287513
0.00157396
0.000501213
0.000537235
0.00233848
0.00182578
0.00202391
0.000354939
0.00111398
6.10432e-05
0.000307222
0.000495378
0.00025691
0.000410451
0.0012935
0.00148044
0.000505538
0.0003997
0.00204774
0.00032713
0.00174787
0.00172118
0.0016671
0.000790725
0.000628137
0.00268731
0.000510633
0.00227826
0.00198718
0.00162167
0.000172067
0.000549775
0.000627494
0.000588815
0.00166351
0.000527416
0.00214494
0.000534132
0.000933147
0.00261496
0.00201185
0.00279302
0.000610025
0.00223235
0.000651238
0.000959464
0.00298801
0.00228575
0.0029237
0.000624486
0.00207502
0.000551551
0.00082036
0.0022839
0.000656306
0.00194472
0.00243776
0.0021688
0.000720716
0.000847061
0.00259829
0.000677484
0.00221552
0.00254121
0.00162465
0.000173489
0.000499924
0.000589022
0.00061761
0.00157352
0.000528232
0.0022649
0.00064931
0.000977332
0.00298285
0.00228786
0.00294603
0.000633869
0.00218999
0.00058455
0.000951828
0.0027143
0.00211318
0.0028249
0.000621232
0.00220301
0.000723693
0.000900019
0.00260852
0.000719303
0.00222574
0.00257943
0.00214697
0.000677826
0.000887202
0.00242878
0.000709587
0.00207806
0.00250838
0.00135941
0.000136771
0.000399557
0.000471967
0.000515736
0.00128543
0.000435677
0.00190212
0.000567289
0.000765786
0.00253161
0.00199833
0.00239777
0.000522451
0.00177855
0.000460934
0.000733117
0.00208311
0.00167872
0.002218
0.000504374
0.0018936
0.000660764
0.000769458
0.00231612
0.000614033
0.00198487
0.00220837
0.00178549
0.000545059
0.000744221
0.00196883
0.000594265
0.00168891
0.00207917
0.00106547
9.67391e-05
0.000306383
0.000354963
0.000394651
0.00100099
0.000337441
0.00147213
0.000443905
0.000564921
0.00191534
0.0015614
0.00179828
0.000403687
0.0013704
0.000352975
0.000540999
0.00156807
0.00129179
0.00166465
0.000388188
0.00149113
0.000525061
0.000600507
0.00184334
0.000475937
0.00158215
0.00173721
0.00139286
0.00041196
0.000575874
0.00152726
0.000456731
0.0013103
0.0016217
0.000824209
6.46328e-05
0.000231008
0.000260106
0.000291271
0.000773772
0.000255838
0.00114023
0.000339224
0.000430588
0.00145732
0.00120461
0.00138179
0.000308429
0.00106918
0.000268801
0.000415131
0.00124314
0.00101364
0.00130054
0.000296116
0.001153
0.00039455
0.000451166
0.00142574
0.000354712
0.00122329
0.00134444
0.00107872
0.000303454
0.000431036
0.0011884
0.000338992
0.00101651
0.00125904
0.000627001
4.26009e-05
0.000161496
0.000179354
0.000210841
0.000569837
0.000189563
0.000903056
0.000257768
0.000343815
0.00117526
0.000951353
0.00112887
0.000233947
0.000844167
0.000192925
0.000331892
0.0010118
0.000781386
0.00106878
0.00022319
0.000896737
0.000289633
0.000335377
0.0011121
0.000259721
0.000950354
0.00105344
0.000835242
0.000212046
0.000321114
0.00091816
0.000247144
0.000768358
0.000989169
0.000283804
1.91841e-05
1.355e-05
1.67873e-05
9.48005e-05
7.48783e-05
8.38779e-05
0.000582406
0.000177862
0.000213361
0.000907966
0.000689685
0.000791305
0.000128565
0.000412857
1.51085e-05
0.000174553
0.000168175
9.31368e-05
0.000581655
0.000102971
0.000562321
0.00019525
0.000192516
0.000816912
0.000140967
0.000676489
0.000685583
0.000395111
2.03584e-05
0.00015851
0.000132638
0.000114986
9.218e-05
0.000488308
0.000572755
0.000204668
0.000163301
0.000967611
0.000114631
0.00079761
0.000698648
0.00355352
0.000612681
0.00130599
0.00316529
0.00270948
0.00414548
0.000888337
0.00396846
0.00027448
0.0013634
0.00218231
0.00126824
0.00591075
0.000849021
0.00513169
0.00153703
0.00169687
0.00816569
0.00589141
0.00722571
0.00103893
0.00423281
0.000894184
0.00378065
0.00190376
0.00300924
0.00130938
0.00554499
0.00663664
0.00318058
0.00262523
0.0204926
0.00156637
0.0111348
0.0102648
0.00523702
0.00112823
0.00179022
0.00404979
0.00398807
0.00527962
0.00174414
0.00690692
0.00167994
0.00324735
0.008836
0.00647196
0.00931017
0.0020154
0.00713617
0.0020845
0.0033138
0.00936353
0.00710558
0.00950683
0.00206623
0.00472637
0.00109658
0.0014531
0.00352432
0.00372298
0.00444595
0.00162798
0.00653507
0.00204668
0.00284458
0.00878607
0.00681574
0.00834634
0.00193201
0.00611436
0.00164243
0.0027088
0.0070627
0.00566916
0.00765824
0.00186135