/*--------------------------------*- C++ -*----------------------------------*\
| =========                 |                                                 |
| \\      /  F ield         | OpenFOAM: The Open Source CFD Toolbox           |
|  \\    /   O peration     | Version:  2.4.0                                 |
|   \\  /    A nd           | Web:      www.OpenFOAM.org                      |
|    \\/     M anipulation  |                                                 |
\*---------------------------------------------------------------------------*/
FoamFile
{
    version     2.0;
    format      ascii;
    class       surfaceScalarField;
    location    "60";
    object      phi;
}
// * * * * * * * * * * * * * * * * * * * * * * * * * * * * * * * * * * * * * //

dimensions      [0 3 -1 0 0 0 0];

internalField   nonuniform List<scalar> 
127924
(
7.84946e-05
-1.67611e-05
-6.17596e-05
0.000543363
-0.000614365
5.93588e-05
1.16305e-05
0.000819333
-0.000818535
4.16775e-05
-4.2471e-05
0.000714516
-0.000690319
3.4479e-05
-5.86729e-05
0.000507589
-0.00048064
2.8796e-05
-5.57438e-05
0.00030662
-0.000285639
2.32273e-05
-4.42089e-05
0.000152973
-0.000136678
1.62358e-05
-3.25345e-05
3.166e-05
-1.79235e-05
1.02062e-05
-2.39566e-05
-0.000518259
5.7207e-05
0.000607718
-0.000146672
-0.000308907
0.000743673
-0.000800556
0.000333352
3.24356e-05
0.000140712
0.000892332
-0.000876273
-0.000170934
1.41631e-05
0.000263236
0.000709698
-0.000682117
-0.000306331
1.55153e-05
0.000232453
0.000505163
-0.000479586
-0.000272101
1.40725e-05
0.000168057
0.000322966
-0.000301519
-0.00019979
1.02856e-05
0.00011087
0.000175323
-0.000159898
-0.000133658
7.36058e-06
7.49231e-05
7.32e-05
-6.3373e-05
-9.0044e-05
5.29169e-06
-0.00109436
0.000117151
0.00114242
-0.000165215
-0.000439397
0.001035
-0.00105439
0.000449466
9.3178e-06
0.000346768
0.000694356
-0.000633964
-0.000330268
-7.68939e-05
0.000512451
0.000303855
-0.000275683
-0.000510853
-2.97704e-05
0.000459823
0.000153612
-0.000143102
-0.000466867
-3.46606e-06
0.000356118
9.52301e-05
-8.96974e-05
-0.000364869
3.21811e-06
0.000255519
5.46673e-05
-4.9438e-05
-0.000264196
3.44823e-06
0.000180787
2.02906e-05
-1.82345e-05
-0.000188163
5.32042e-06
-0.00140342
0.00015671
0.00141223
-0.000165518
-0.000373104
0.0013152
-0.00128909
0.000346977
2.02093e-08
0.000278012
0.000533913
-0.000423649
-0.000253867
-0.00013441
0.000471257
-9.55005e-05
0.000135531
-0.000440214
-7.10737e-05
0.000439651
-0.000240136
0.000238135
-0.000414866
-2.27846e-05
0.00035359
-0.000173817
0.000162137
-0.000337268
-4.64148e-06
0.000271577
-8.63459e-05
7.81282e-05
-0.000262191
-1.16514e-06
0.000200845
-2.94571e-05
2.2878e-05
-0.000195269
1.00393e-06
-0.00121003
0.00017807
0.00114331
-0.000111335
-0.000194914
0.0014379
-0.00139536
0.000174539
-2.21628e-05
5.58336e-05
0.000455828
-0.000318909
-2.29459e-05
-0.000169807
0.00016056
-0.000302948
0.000353056
-0.000111894
-9.87735e-05
0.000184584
-0.00046941
0.000461492
-0.000143244
-3.34205e-05
0.000178876
-0.000334
0.000312687
-0.000150033
-7.52781e-06
0.00016211
-0.000172338
0.000156196
-0.000143263
-2.7001e-06
0.000133281
-6.11375e-05
4.94218e-05
-0.000121516
-4.52329e-08
0.000882907
0.000218937
-0.00100803
-9.38226e-05
-6.1873e-05
0.00145275
-0.00141981
5.43401e-05
-2.54115e-05
-0.00019807
0.000497723
-0.000363573
0.000230223
-0.000166304
-0.000212156
-0.000248804
0.000298809
0.000254425
-9.22743e-05
-0.000141262
-0.000420361
0.00041315
0.000176041
-2.75659e-05
-5.53977e-05
-0.000299919
0.000280741
7.96729e-05
-5.09347e-06
8.97118e-06
-0.000153249
0.000138944
6.04504e-06
-7.05089e-07
3.72513e-05
-5.44424e-05
4.38767e-05
-2.70543e-05
3.74214e-07
0.0012706
0.000156302
-0.0012565
-0.000170406
1.03146e-05
0.00142788
-0.00141146
-2.68778e-05
1.31909e-07
-0.000431552
0.000695714
-0.000588634
0.000437036
-0.000112565
-0.000481495
6.72442e-05
-2.71437e-05
0.00048643
-4.50342e-05
-0.000350271
-0.000109844
0.000113415
0.000355026
-8.32328e-06
-0.000197047
-9.62733e-05
9.05183e-05
0.000200214
2.59231e-06
-8.48747e-05
-4.96302e-05
4.5037e-05
8.72066e-05
2.26704e-06
-2.59826e-05
-1.46464e-05
1.06589e-05
2.8358e-05
1.61778e-06
0.000853304
8.43067e-05
-0.000756389
-0.000181225
2.67158e-05
0.00135055
-0.00137492
-1.49909e-05
1.26416e-05
-0.000426728
0.00102208
-0.000950982
0.000394073
-3.84461e-05
-0.000395701
0.000536729
-0.000493867
0.000353174
-3.3285e-07
-0.000255546
0.000273445
-0.000250515
0.000221246
1.1374e-05
-0.000133508
0.000130869
-0.000118312
0.000111894
9.0631e-06
-5.48135e-05
5.4215e-05
-4.79503e-05
4.43973e-05
4.15741e-06
-2.05357e-05
2.16935e-05
-1.95108e-05
1.69073e-05
1.45562e-06
-0.000183758
4.63765e-05
-7.1421e-05
0.00020878
-8.87793e-05
0.000729618
-0.000796129
7.11882e-05
8.4094e-05
-4.96984e-05
0.00100591
-0.000997879
-1.31456e-05
5.48066e-05
-1.16319e-05
0.000859714
-0.000827987
-3.95282e-05
1.94332e-05
1.61172e-05
0.000605724
-0.000572947
-4.07441e-05
-8.15227e-06
2.64604e-05
0.00036526
-0.000339521
-3.28857e-05
-1.93154e-05
2.10395e-05
0.000182039
-0.000165873
-2.13093e-05
-1.58993e-05
1.30868e-05
5.01569e-05
-3.40378e-05
-2.05365e-05
-8.67156e-06
-0.000183034
-0.000734567
-0.000155481
0.000875268
0.000197812
-0.0396544
-0.00149015
-1.04631e-05
0.000361025
0.000866551
0.00212359
0.00291073
-0.00612627
-0.00331209
-0.00664439
-0.00382487
0.0121556
0.0164766
0.0122299
0.0139385
-0.0341796
-0.0172974
-3.94824e-06
0.000921374
0.000514197
0.00255147
0.00168927
0.00119817
0.00220381
0.000886967
0.00186107
-0.027675
-0.0219822
4.01293e-06
0.000212204
-0.000191731
0.000955185
0.000257509
0.00366752
0.00366426
0.00345092
0.00345759
-0.0194803
-0.0224182
1.0138e-05
-0.000193315
-0.000387676
6.74559e-05
-0.000254019
0.00394896
0.00367338
0.00381454
0.00354383
-0.0113076
-0.0194808
1.18979e-05
-0.000296185
-0.000365972
-0.000214674
-0.000333673
0.0033396
0.00300026
0.00325548
0.00291124
-0.00138601
-0.0142377
8.63494e-06
-0.000352911
-0.000378184
-0.000299223
-0.000380202
0.00236336
0.00212332
0.00228387
0.00204053
-0.000899813
-0.00135542
-0.000837947
-0.000389485
0.00172581
-0.00220718
0.000240386
-0.000171493
-0.000205034
-0.00017529
-0.000203742
-0.00296874
-0.00322003
-0.00249568
0.000558056
0.000408204
0.0485205
-0.00763844
-1.24643e-05
0.00732728
0.00830689
0.00881277
0.0105853
0.00281544
-0.0169381
-0.0154008
-0.0478685
0.0200092
-0.0132962
-9.01111e-06
0.00629128
0.00480964
0.00755278
0.00586531
0.00653413
-0.0184185
-2.14588e-06
0.00267042
0.00164515
0.00339524
0.00220269
0.00154571
-0.0201719
6.6109e-06
0.000771933
0.000329274
0.00109572
0.000538555
0.00051835
-0.0186617
1.2744e-05
7.66345e-05
-7.43376e-05
0.000187307
5.89823e-06
0.000139879
-0.0142713
1.15241e-05
-0.00013229
-0.000213023
-8.51575e-05
-0.000121878
0.000365713
0.000194566
0.000392592
-0.00029762
0.00263294
-0.00258867
0.000184544
6.26203e-05
4.12236e-05
5.19724e-05
5.28554e-05
-0.00412705
-0.000111392
-0.0020871
9.30985e-05
0.000588237
0.119983
0.00479044
-1.33428e-05
0.0112911
0.0131533
0.0116165
0.0139591
-0.0282534
-0.0289742
-0.0619786
-0.063212
0.0690128
-0.000254442
-9.52422e-06
0.010129
0.00823385
0.0106821
0.00889272
0.0381629
-0.00555881
-4.1876e-06
0.00506491
0.00354902
0.00548059
0.00389994
0.0207384
-0.00904079
4.02067e-06
0.00185429
0.00115729
0.00199622
0.00128149
0.010588
-0.010287
1.19943e-05
0.000528908
0.000318713
0.000568157
0.000347953
0.00112164
-0.0089381
1.25824e-05
0.000148368
0.000102034
0.000169479
0.000122449
0.00126486
0.00108769
0.00122574
5.02399e-05
0.0024972
-0.00205436
-2.84113e-05
0.000173072
0.000155352
0.000171732
0.000156819
-0.00424829
-4.72491e-05
-0.00215267
3.91964e-05
0.000647493
0.13263
0.00464317
-1.70272e-05
0.0121005
0.0145929
0.0121107
0.0146915
-0.0291597
-0.0289996
-0.0639315
-0.0638706
0.0818101
0.00907492
-1.01285e-05
0.0113223
0.00941225
0.0113716
0.00939474
0.0477181
0.00820557
-4.32568e-06
0.00593467
0.00426368
0.0059029
0.00423074
0.0270159
0.00425006
3.37868e-06
0.00226382
0.00148188
0.00220526
0.00145711
0.0140912
0.000355671
1.1666e-05
0.000701467
0.000473519
0.000656546
0.000438878
0.00158998
-0.00199215
1.26467e-05
0.000255523
0.000230385
0.000243409
0.000225624
0.00155909
0.00153316
0.00149554
0.000158892
0.0016283
-0.00107029
-0.00010377
0.000247163
0.000240941
0.000248876
0.000239874
-0.00428757
1.80724e-05
-0.00216426
-1.75922e-05
0.000656517
0.113349
0.0199765
-1.18281e-05
0.0118737
0.0141415
0.0115635
0.0134663
-0.0282355
-0.0274273
-0.0626739
-0.0613792
0.061771
0.0228703
-9.0366e-06
0.0107112
0.00880861
0.0101905
0.00808179
0.0332417
0.0194882
-4.1194e-06
0.0053553
0.00376069
0.00482805
0.00330685
0.0182169
0.0134817
4.49206e-06
0.00189996
0.00121951
0.001655
0.00101432
0.00950327
0.00750255
1.24352e-05
0.000532449
0.000339666
0.000418219
0.000264036
0.00117938
0.00269749
1.26602e-05
0.000175669
0.000166801
0.000120163
0.000118858
0.000962937
0.00113868
0.000938553
0.000100982
0.000532636
-0.000150691
-7.38807e-05
0.000183489
0.000201576
0.000184344
0.000200924
-0.00419253
8.55426e-05
-0.00210807
-7.40157e-05
0.000601757
0.034609
0.00401742
-1.13265e-05
0.00896926
0.0106272
0.00744688
0.00844885
-0.0154148
0.00408918
-0.0467207
-0.0139519
0.00663237
0.0044108
0.00682425
0.00753349
0.00701786
-7.95275e-06
0.00755949
0.00564043
0.00626328
0.00454136
0.00624241
0.00672443
0.00596457
-0.000106061
0.00515261
1.15542e-07
0.00312289
0.00190337
0.00234581
0.0013344
0.00434763
0.0048487
0.00407223
-0.000569372
0.00336998
9.42034e-06
0.000871893
0.000381187
0.000514674
0.000178309
0.00280302
0.00316973
0.00264685
0.00024611
0.00193034
1.48164e-05
8.16642e-05
-1.71773e-05
-3.46054e-05
-8.39295e-05
0.00152321
0.00182609
0.00144674
0.000255172
0.000784879
1.23248e-05
-6.96962e-05
-5.43905e-05
-0.00010904
-9.51069e-05
6.18415e-05
0.000272064
9.23791e-05
0.000554894
0.000729597
0.000508747
-5.62819e-05
-0.000220075
0.000286578
2.29731e-05
4.72428e-05
6.3772e-05
4.36045e-05
6.73599e-05
-0.00319231
0.00313194
-0.00417872
-0.00476179
0.00175542
0.00148733
0.00431526
0.00144287
0.00148289
0.0193421
-0.0146199
-0.00203956
0.000176105
-0.000238143
0.000219306
-0.000305325
0.00279495
0.0126519
-0.0108484
-0.00194938
0.00103258
0.00114926
0.00107301
0.0011139
0.000787576
0.00894479
-0.00710993
-0.000631449
0.000728397
0.000848867
0.000778404
0.000805948
-4.2304e-05
0.00532505
-0.00387491
-6.20752e-05
0.00046998
0.000542741
0.00049984
0.000511662
-0.000172531
0.00257875
-0.00171004
5.99731e-05
0.000273044
0.000316379
0.000291121
0.000293651
-0.000125649
0.000976025
-0.000572605
6.07226e-05
9.62773e-05
0.000127638
0.000107432
0.000115047
-6.21403e-05
-0.00031633
0.000259987
4.38172e-05
-2.9959e-05
-2.34105e-05
-3.45461e-05
-1.73237e-05
4.09451e-05
4.95695e-05
4.55261e-05
4.3878e-05
2.79679e-06
0.000119752
-2.57094e-05
-9.68702e-05
-1.70171e-07
0.000640687
-0.00072867
0.000102313
-1.41665e-05
-1.0393e-07
0.00100413
-0.000997784
8.45657e-06
-1.47022e-05
-1.60288e-07
0.000868854
-0.000836582
-2.52967e-05
-6.81702e-06
-1.5719e-07
0.000612888
-0.000579131
-3.26919e-05
-9.10513e-07
-7.92018e-08
0.00036657
-0.00034023
-2.79227e-05
1.65925e-06
8.77102e-09
0.000179255
-0.000163422
-1.74887e-05
1.64494e-06
9.44686e-08
4.37531e-05
-2.80911e-05
-1.57673e-05
4.63639e-09
1.20485e-06
-0.000797153
-0.000119679
0.000968952
-5.33259e-05
-0.0396688
-0.00149172
0.000355418
-0.0066435
-0.0038249
-0.00612564
-0.00331299
0.0122328
0.0139413
0.0121604
0.0164796
0.00086263
0.00211863
0.00290635
-0.0341936
-0.0172923
0.000919776
0.000886025
0.00185995
0.00119572
0.00220152
0.000513499
0.00254912
0.00168748
-0.027687
-0.0219754
0.000214089
0.00344949
0.00345618
0.00366501
0.00366189
-0.000189187
0.000955915
0.000259248
-0.0194885
-0.0224108
-0.000189127
0.00381313
0.00354253
0.00394662
0.00367128
-0.000383631
7.12527e-05
-0.00024966
-0.0113126
-0.0194743
-0.000291401
0.00325443
0.00291048
0.00333799
0.00299914
-0.000361933
-0.000209544
-0.000328963
-0.00135603
-0.0142343
-0.000349812
0.00228349
0.00204006
0.00236299
0.00212331
-0.000838536
-0.00138671
-0.000900381
-0.000375768
-0.000295216
-0.00037717
-7.15687e-07
0.00156589
-0.00194589
-0.000239237
-0.000168433
-0.000200083
-0.000165582
-0.000202003
4.50933e-08
-0.00432398
-0.00216272
0.000657269
-1.93686e-06
0.0484919
-0.00763968
0.00732164
-0.0153958
-0.0478606
0.00281826
-0.016928
0.00830146
0.00880736
0.0105794
0.0199821
-0.0132936
0.00628675
0.00480583
0.0075481
0.00586126
0.00651208
-0.0184152
0.00266876
0.00164462
0.00339307
0.00220127
0.0015307
-0.0201681
0.000774259
0.000332579
0.00109717
0.00054123
0.00051075
-0.0186574
8.17577e-05
-6.91205e-05
0.000191994
1.10754e-05
0.000194304
-0.0142687
-0.00012791
0.000392288
0.000139636
0.000366007
-0.000209247
-8.02098e-05
-0.000118119
-1.2969e-06
0.00230521
-0.0022092
-0.000182225
7.22531e-05
6.94138e-05
7.48668e-05
6.52789e-05
4.09125e-09
-3.01317e-06
0.00144692
2.42045e-06
7.8229e-08
0.119942
0.00478974
0.0112847
-0.0619699
-0.0632022
-0.0282446
-0.0289609
0.0131468
0.011609
0.0139523
0.0689759
-0.000254528
0.0101235
0.00822912
0.0106773
0.00888787
0.0381333
-0.00555984
0.0050617
0.0035466
0.00547745
0.00389732
0.0207181
-0.00904174
0.00185477
0.00115903
0.00199609
0.00128292
0.010578
-0.0102871
0.000533218
0.000323627
0.000572259
0.000352786
0.00108759
-0.00893821
0.00015301
0.00122533
0.00112184
0.00126529
0.000106077
0.000174519
0.000126438
-1.49407e-06
0.00211883
-0.0017244
3.11014e-05
0.000173731
0.000158234
0.000173732
0.000157849
8.41087e-09
-4.87337e-07
0.00145423
4.40159e-07
-1.03166e-07
0.132588
0.00464548
0.0120899
-0.063922
-0.0638605
-0.0291506
-0.028986
0.0145848
0.0121003
0.0146836
0.0817713
0.00907273
0.0113166
0.00940719
0.011366
0.00938956
0.0476865
0.00820094
0.00593134
0.00426087
0.0058997
0.00422793
0.0269937
0.00424465
0.00226377
0.00148301
0.00220481
0.00145819
0.01408
0.000350585
0.000705439
0.000478258
0.000660489
0.000443587
0.00153302
-0.00199567
0.00026024
0.00149523
0.00159006
0.00155951
0.000234327
0.000248161
0.000229648
-1.6554e-06
0.00138192
-0.000914827
0.000106754
0.000243922
0.000236518
0.000243242
0.000237157
7.87265e-09
3.17135e-07
0.00145416
-3.45154e-07
-9.45132e-08
0.113312
0.0199774
0.0118687
-0.0626652
-0.0613705
-0.0282275
-0.0274172
0.0141357
0.0115597
0.0134609
0.0617373
0.0228657
0.010706
0.00880385
0.0101856
0.00807713
0.0332141
0.0194802
0.00535205
0.00375822
0.00482506
0.00330452
0.0181973
0.0134728
0.00190008
0.00122109
0.00165574
0.00101631
0.0094928
0.00749436
0.000536764
0.000344705
0.000422794
0.000269018
0.00113858
0.00269166
0.000180473
0.000938089
0.00117939
0.000963006
0.000170869
0.000124897
0.0001229
-1.64838e-06
0.000466788
-0.000162965
7.6908e-05
0.000181225
0.000198482
0.000181006
0.000198793
-3.6248e-10
2.55282e-06
0.00144263
-2.15942e-06
1.13577e-07
0.0345886
0.0044124
0.00896585
-0.0467158
-0.0139497
-0.015412
0.00408939
0.0068248
0.00401956
0.00663246
0.0106228
0.00744294
0.00844485
0.00751129
0.00672371
0.00755556
0.00596357
0.0070164
0.00624007
0.00563671
0.00626021
0.00453886
-0.000125775
0.00484715
0.00312136
0.00407091
0.00514959
0.00434455
0.00190288
0.00234564
0.00133543
-0.000583603
0.00316793
0.000874439
0.00264504
0.00336665
0.00279969
0.000384956
0.0005185
0.00018292
0.00023836
0.00182451
8.71112e-05
0.00144535
0.00192764
0.0015208
-1.166e-05
-2.84834e-05
-7.79924e-05
0.000271834
0.000728531
-6.47698e-05
9.18897e-05
0.000254919
6.1287e-05
0.000507859
0.000783025
0.000553364
-5.03446e-05
-0.000104159
-9.10288e-05
-1.52433e-06
-0.000161414
0.000207481
-2.01339e-05
5.13403e-05
7.21952e-05
5.28182e-05
7.1077e-05
8.9664e-07
0.00431216
-0.00538557
-0.00599406
-0.000182106
0.00146822
0.00431072
0.00146974
2.06894e-06
0.0157671
-0.0124909
0.00203513
5.1559e-05
-0.000503703
-2.98961e-05
-0.000418948
4.83909e-07
0.0112981
-0.0100864
0.00194834
0.000884937
0.000902064
0.000829719
0.000946499
-2.09567e-06
0.00858783
-0.00693975
0.000635238
0.000629294
0.000654927
0.000598576
0.000683132
-3.98266e-06
0.00529294
-0.00389108
6.94499e-05
0.000417262
0.00043309
0.000402651
0.000447611
-4.49702e-06
0.00261502
-0.00173958
-5.18256e-05
0.000246606
0.000255567
0.000239206
0.000264023
-3.56179e-06
0.000987907
-0.000565831
-5.43342e-05
8.37006e-05
9.81935e-05
8.09912e-05
0.000101478
-1.95234e-06
-0.000249667
0.000229572
-4.02788e-05
-2.54732e-05
-1.04494e-05
-2.42236e-05
-1.23612e-05
3.3285e-05
3.40269e-05
3.19752e-05
3.55627e-05
0.00017826
3.3109e-05
-7.12357e-05
-0.000140158
8.94792e-05
0.000741255
-0.000806672
6.17779e-05
-8.58537e-05
4.98438e-05
0.00100757
-0.000999899
-2.05556e-05
-3.69604e-05
1.16008e-05
0.000859729
-0.000828203
-4.6008e-05
2.87787e-06
-1.61463e-05
0.00060535
-0.000572792
-4.54536e-05
2.90376e-05
-2.64307e-05
0.000365918
-0.000340235
-3.59472e-05
3.66909e-05
-2.09388e-05
0.000183557
-0.000167089
-2.44282e-05
2.88934e-05
-1.28876e-05
5.1117e-05
-3.54002e-05
-2.17632e-05
1.89271e-05
0.000182631
-0.000717898
-0.0001648
0.000849806
-0.000149747
-0.00605006
0.0141732
-0.0152314
0.00812417
-6.61101e-05
-0.000247566
-0.000184589
-0.000162289
0.00168113
0.0148632
-0.0135166
-0.00221238
5.40093e-05
-7.9704e-06
-4.24826e-05
0.00010082
0.00428721
0.0119299
-0.0101785
-0.00551328
-8.13748e-05
-7.76425e-05
-0.000123334
-2.89684e-05
0.00443257
0.00854481
-0.00690974
-0.00578074
-0.000125
-0.000114224
-0.000136542
-0.000100303
0.003688
0.00550302
-0.00418919
-0.00489543
-0.000102947
-9.56237e-05
-0.000105317
-9.39393e-05
0.00271302
0.00308389
-0.00214637
-0.00367933
-8.32696e-05
-7.91814e-05
-8.0564e-05
-7.80492e-05
0.000388724
0.00191854
0.00140153
-0.00261224
-0.000176991
-0.000199583
-0.000171053
-0.000202865
-9.52949e-05
-7.83692e-05
-8.87767e-05
-8.36332e-05
0.00296914
-0.00408705
-0.00407631
0.00276611
-0.00412723
0.0012096
0.00419118
0.00115455
-0.00791346
0.015954
-0.00923527
0.00620903
0.000804914
0.000342776
0.00068577
0.000473881
0.00324183
0.00578401
-0.00417028
-0.00287333
0.00105543
0.00108563
0.000960149
0.0012033
0.0065049
0.00286265
-0.00225439
-0.00617651
0.000403792
0.000458549
0.000357654
0.000512087
0.0067057
0.00167714
-0.00131386
-0.00663696
7.19552e-05
9.69281e-05
5.64264e-05
0.000116903
0.00570633
0.000988373
-0.000710377
-0.00580724
-2.87138e-05
-1.95182e-05
-3.26788e-05
-1.44368e-05
0.00434466
0.00047569
-0.000254318
-0.00452262
-4.43642e-05
-4.11516e-05
-4.65277e-05
-3.92842e-05
0.000295857
0.00312253
7.49563e-05
-0.00326031
6.73624e-06
1.08036e-05
2.43917e-05
-1.07429e-05
-6.31975e-05
-6.60803e-05
-7.25362e-05
-6.23972e-05
0.00412712
-0.0011874
-0.00515152
0.00110094
-0.00596171
0.00144274
0.00416922
0.00146061
-0.00532461
0.00772742
-0.000106569
0.00486013
0.00131701
0.000732099
0.00122775
0.000851533
0.0023339
-0.00396926
0.0054211
-0.000925065
0.00176743
0.0018629
0.00167777
0.00195476
0.00539272
-0.0062729
0.00583913
-0.00361823
0.000888017
0.000973378
0.000820141
0.00103946
0.00602244
-0.00537003
0.00446363
-0.00449378
0.000284493
0.000336769
0.000264731
0.00034653
0.0054117
-0.00364684
0.00278652
-0.00429413
6.14812e-05
7.85168e-05
5.62047e-05
7.97612e-05
0.00432878
-0.00207377
0.00145085
-0.00361196
1.23313e-05
1.7093e-05
1.26254e-05
1.70849e-05
-5.22054e-05
0.00312946
-0.000982856
-0.00267843
0.000145413
0.000143524
0.000156988
0.000132224
4.54127e-06
-4.395e-07
2.11347e-06
-3.39828e-07
0.00424825
-0.000538041
-0.00518849
0.000465637
-0.00636085
0.001548
0.00426782
0.00155767
-0.00344507
0.00589319
0.00289819
0.00192151
0.00147052
0.000940397
0.00146527
0.000946018
-0.000201138
-0.00785263
0.00952765
0.00132159
0.00202849
0.00223291
0.00201809
0.00224174
0.00168648
-0.0103759
0.00956654
0.000462317
0.0010627
0.00123387
0.00105796
0.00123736
0.00261527
-0.00866924
0.00719503
-0.000483342
0.000362958
0.000443282
0.000360429
0.000439405
0.00286472
-0.00587058
0.00448361
-0.00121216
9.98047e-05
0.00012241
9.67134e-05
0.000120952
0.00266594
-0.00332374
0.00230956
-0.00154384
3.57085e-05
4.04885e-05
3.65261e-05
3.96335e-05
-0.000160927
0.0020821
-0.00153557
-0.00137533
0.000219101
0.000231085
0.000236406
0.00021418
2.47615e-05
2.01498e-05
2.55443e-05
1.85123e-05
0.00428739
0.000271252
-0.00521581
-0.000359445
-0.00636821
0.00155085
0.00427948
0.00155449
-0.00058123
0.0066742
0.00129558
-0.000380314
0.00146224
0.000965711
0.00148925
0.000943323
-0.00249303
-0.00554151
0.00691939
0.00372766
0.00189299
0.00215285
0.0019345
0.00211316
-0.00254707
-0.00771242
0.00713658
0.00431649
0.000935599
0.00114492
0.000973341
0.00110466
-0.00156048
-0.00655784
0.00546734
0.00323198
0.000288884
0.000371985
0.000302444
0.000355804
-0.000376976
-0.00453859
0.00349722
0.00165747
6.39248e-05
8.61392e-05
6.79321e-05
7.96807e-05
0.00045823
-0.0026181
0.00182995
0.000415966
2.23594e-05
2.51685e-05
2.35969e-05
2.33565e-05
-0.000103079
0.000685607
-0.00122567
-0.000136943
0.000164807
0.000193816
0.000178382
0.000178046
1.84395e-05
1.4352e-05
1.98548e-05
1.24197e-05
0.00419242
0.000905369
-0.00521819
-0.000969266
-0.00596718
0.00144996
0.00416233
0.00144456
7.89404e-05
0.0132484
-0.00766179
9.80343e-05
0.000972024
0.00064045
0.00104376
0.000546091
-0.00529342
0.0044694
-0.00293286
0.00591268
0.00119882
0.00150879
0.00131419
0.00137797
-0.00577843
0.00147918
-0.000724234
0.006021
0.000434042
0.000632891
0.000510771
0.000546162
-0.00436636
1.33161e-05
0.000352475
0.004445
7.08279e-05
0.000147939
0.000105757
0.000105506
-0.00250253
-0.000585332
0.00063694
0.00262449
-3.05972e-05
-1.13949e-05
-1.68522e-05
-2.75791e-05
-0.00101706
-0.000592117
0.000470825
0.00116871
-2.57441e-05
-2.11808e-05
-1.92943e-05
-2.88748e-05
5.39638e-05
-0.000270725
-0.000330049
0.000415248
3.12791e-05
5.76678e-05
3.84523e-05
5.01252e-05
-1.17469e-05
-1.15839e-05
-7.14093e-06
-1.54608e-05
0.00319279
0.00368283
-0.00230734
-0.00247302
-0.00209527
-0.00147952
0.00035476
0.0210608
-0.0197408
8.77677e-05
-0.000291048
8.98831e-05
-0.000279151
6.78156e-05
3.94237e-05
0.000247549
-0.000157501
-0.00279455
-0.0060123
0.0169443
-0.0138575
0.00102077
0.00104788
0.000994011
0.00104179
0.000280957
0.000548974
0.00041508
0.000370616
-0.000791155
-0.00554307
0.0107623
-0.0081339
0.000867636
0.000903942
0.00082423
0.00093115
-6.44169e-06
0.000114077
3.38428e-05
3.74261e-05
3.56428e-05
-0.00389002
0.00587951
-0.00411175
0.000585108
0.000607195
0.00055165
0.000635064
-7.87026e-05
-5.84271e-05
-8.12484e-05
-7.39739e-05
0.000165412
-0.00226942
0.0027226
-0.00173949
0.000327038
0.00035626
0.000321157
0.000361738
-5.38363e-05
-6.63984e-05
-6.56798e-05
-5.9337e-05
0.000120487
-0.00101611
0.00103613
-0.00060392
0.000136907
0.00015521
0.000132019
0.000158787
-2.49571e-05
-3.44326e-05
-3.23869e-05
-2.76868e-05
5.94696e-05
-0.000399251
0.000338375
-5.53399e-05
-3.88368e-05
-4.71376e-05
-4.85524e-05
6.01335e-05
6.12577e-05
5.63706e-05
6.40495e-05
-1.02681e-05
-1.49689e-05
-1.41527e-05
-1.10925e-05
0.00045572
6.38903e-05
2.3742e-05
-0.000422999
4.8615e-05
-0.000143876
-0.000731737
0.000381197
-0.000339798
0.000656939
3.33971e-05
-0.00014917
3.60301e-05
-7.06362e-05
-0.000740459
9.31447e-05
-9.11007e-05
0.000657221
8.11849e-05
0.000717689
0.000175472
-0.000141974
-0.000591177
-0.000160013
-0.0138762
0.0116045
0.00158148
-0.000500562
-0.00035619
-0.000437904
-0.00045664
-0.00168578
-0.00144907
-0.00142774
-0.00172421
0.00219436
0.00219407
0.00221705
0.00212276
0.000814
4.29691e-05
-3.76362e-05
-0.000278848
-0.00079105
2.92499e-05
-0.00091372
-0.000106357
7.8022e-05
0.000918893
2.31627e-05
-8.48853e-05
-0.000806099
6.17416e-05
-0.00100742
5.55117e-05
-4.30436e-05
0.0010029
-7.94603e-06
-0.0163738
0.00604971
0.000655409
-0.000285
-0.000259785
-0.000333197
-0.000223051
-0.000656129
-0.000890195
-0.0008786
-0.000681605
-0.017105
0.00150042
0.000675219
-0.000250995
-0.000186306
-0.000234447
-0.00018678
-0.000206533
-9.38626e-05
-5.29392e-05
-0.000232578
0.000734156
3.62373e-05
-5.5877e-05
0.000108157
-0.000901851
2.06856e-05
-0.000749297
-0.000260314
0.000213284
0.000774733
2.15949e-05
-3.67509e-05
-0.000999745
-2.06272e-05
-0.000859614
1.61645e-05
-1.57546e-06
0.000886861
-4.1837e-05
-0.0162599
-0.00168425
0.000330137
-0.000194549
-0.000135942
-0.000186138
-0.000171375
0.000355931
0.000251892
0.000273724
0.000315377
-0.0147202
-0.0034637
0.000438168
-0.000164902
-0.000183497
-0.000188057
-0.000143017
0.000547567
0.000530971
0.000569346
0.000517464
0.000532684
3.00708e-05
-5.51652e-05
0.000216124
-0.000721624
1.94392e-05
-0.000536951
-0.00023973
0.000196118
0.000562393
1.817e-05
2.8905e-06
-0.000828021
-4.61159e-05
-0.000605211
-1.33691e-05
2.66143e-05
0.000637214
-4.52492e-05
-0.0127821
-0.00429078
0.0003951
-0.000171334
-0.000145676
-0.000146862
-0.000182395
0.000654451
0.000649616
0.00067216
0.000627572
-0.010783
-0.00450983
0.000430325
-0.000132969
-0.000170602
-0.000150485
-0.000144663
0.00069394
0.000643876
0.000665018
0.000676221
0.000328666
2.23015e-05
-4.43479e-05
0.000189957
-0.000509867
1.54118e-05
-0.000341962
-0.000176269
0.000142114
0.00036377
1.23457e-05
2.90429e-05
-0.000572602
-4.55364e-05
-0.000365803
-2.60584e-05
3.66472e-05
0.000392994
-3.77817e-05
-0.00879928
-0.00443599
0.000342101
-0.000115938
-0.000119818
-0.000101288
-0.000140068
0.000634487
0.000660227
0.000671323
0.000621206
-0.00697346
-0.00411108
0.000310439
-7.92216e-05
-0.000115646
-8.9432e-05
-0.000101638
0.000611934
0.00056766
0.000575921
0.000605206
0.000169816
1.69224e-05
-3.37673e-05
0.000135248
-0.000319153
9.99887e-06
-0.000184884
-0.000117372
9.3301e-05
0.000201219
7.7346e-06
3.67384e-05
-0.00034009
-3.59926e-05
-0.000183466
-2.23779e-05
3.04432e-05
0.000202598
-2.71996e-05
-0.00533423
-0.00369024
0.000247649
-6.32307e-05
-7.74962e-05
-5.51047e-05
-8.76971e-05
0.000507407
0.000536395
0.000540201
0.000502852
-0.00389673
-0.00321747
0.00020832
-4.05947e-05
-7.04762e-05
-4.77902e-05
-6.19188e-05
0.000464327
0.000431181
0.000434811
0.000462064
4.60568e-05
1.07681e-05
-2.51744e-05
8.81299e-05
-0.000168583
6.43611e-06
-7.64828e-05
-7.85652e-05
6.33683e-05
8.73627e-05
4.31471e-06
2.89897e-05
-0.000167
-2.4418e-05
-5.1092e-05
-1.44324e-05
2.08826e-05
6.78064e-05
-2.31657e-05
-0.00272223
-0.00271337
0.000221467
-3.87684e-05
-5.37817e-05
-3.50009e-05
-5.90374e-05
0.000368549
0.000382444
0.000386062
0.000366903
-0.00176001
-0.00231568
0.000194799
-2.82208e-05
-5.01243e-05
-3.19555e-05
-4.47494e-05
0.000333896
0.000322986
0.000320788
0.000336008
-1.34775e-05
1.29272e-05
5.32702e-07
6.04563e-05
-6.59805e-05
3.96197e-06
-2.27056e-05
-1.12547e-06
8.49184e-06
1.53241e-05
1.91147e-05
-3.53836e-05
-2.17374e-05
-8.43948e-06
1.07888e-05
-2.29834e-05
2.06178e-05
-0.00191646
0.000217434
-4.17993e-05
-4.95006e-05
-3.3342e-05
-6.12703e-05
0.000259606
0.000283939
0.000280391
0.000260239
-0.000240934
-0.000239136
-0.000239711
-0.000239495
-6.19924e-05
2.49901e-05
-2.72218e-05
4.80063e-05
1.62143e-05
0.000668038
0.00041576
4.10709e-05
-0.00104101
0.000107089
-0.000160438
-0.000978925
0.000596767
-0.000575252
0.000903658
5.37489e-05
-0.00015076
-0.000164295
0.000849709
0.0159117
-0.0141673
0.00184951
-0.000622583
-0.000500483
-0.000581873
-0.000453331
0.00261552
0.00239155
0.00239771
0.00276408
0.00408789
0.00285228
-0.0018073
-0.0029307
-0.00220217
-0.0156647
0.017219
0.000884141
-0.000818642
-0.00053639
-0.000611961
-0.000918825
0.00324002
0.00530103
0.00402042
0.00379766
0.000901976
-0.000132684
1.66824e-05
-0.000428082
-0.00100764
1.73951e-05
-0.000723805
-0.000296213
0.000286356
0.000784394
-5.07337e-05
-0.0152273
0.00812627
-6.51768e-05
-0.000246011
-0.000183347
-0.000160984
0.00193682
-0.014859
7.86827e-05
-4.88139e-05
-4.53989e-05
7.73069e-05
-0.0137939
0.00791654
0.000100251
0.000100908
-5.60057e-05
0.000317296
-0.0118187
0.000779188
0.000403751
0.000634845
0.000404138
0.000650477
0.000735664
-0.000302975
1.66952e-05
0.000336552
-0.00066935
-4.42405e-05
-0.000360645
-0.000509917
0.000496681
0.000396294
-2.24138e-05
-0.0135125
-0.00221432
5.41505e-05
-7.80295e-06
-4.24052e-05
0.00010103
-0.00445395
-0.0119251
4.54262e-05
-8.20436e-05
-3.29074e-05
-1.34179e-05
-0.00998163
-0.00324361
0.00032012
0.000571968
0.000366778
0.00048476
-0.00835954
-0.00556421
0.000259391
0.000316523
0.000196231
0.000405302
0.000529118
-0.00028022
1.65351e-05
0.000498887
-0.00033268
-1.44021e-05
-0.000205271
-0.000471382
0.000456562
0.000218734
1.3553e-06
-0.0101737
-0.00551666
-8.19081e-05
-7.81445e-05
-0.000123914
-2.93761e-05
-0.00586401
-0.00853996
-8.7946e-05
-0.000145629
-0.000116139
-0.000121633
-0.00690974
-0.00650831
5.23899e-05
0.000206953
0.000111305
0.000126365
-0.00568716
-0.00687136
1.20567e-06
1.25712e-05
-3.33964e-05
6.18854e-05
0.000343271
-0.000209091
1.25167e-05
0.000445027
-0.000192909
2.43339e-06
-0.000130663
-0.000370178
0.000356112
0.000137894
6.8338e-06
-0.00690548
-0.00578446
-0.000125835
-0.000114999
-0.000137325
-0.000101177
-0.00542243
-0.00549931
-0.00011086
-0.000130118
-0.000116533
-0.000125005
-0.00452871
-0.00670931
-7.14224e-05
-8.45873e-06
-4.30599e-05
-4.3229e-05
-0.00358832
-0.00630787
-8.08937e-05
-7.6969e-05
-9.43788e-05
-5.67425e-05
0.000190703
-0.000141324
8.56914e-06
0.000342272
-0.000122632
5.81418e-06
-7.30406e-05
-0.000268182
0.000255882
7.9551e-05
5.78893e-06
-0.00418655
-0.00489866
-0.00010368
-9.62617e-05
-0.000105938
-9.46683e-05
-0.00432586
-0.00308199
-8.65086e-05
-9.3521e-05
-8.78544e-05
-9.42886e-05
-0.00268423
-0.00570972
-8.75073e-05
-6.56138e-05
-7.80843e-05
-7.65264e-05
-0.00195384
-0.00508009
-7.9909e-05
-7.63572e-05
-8.46549e-05
-6.89312e-05
8.33587e-05
-9.43923e-05
5.66583e-06
0.000243523
-6.6097e-05
5.05206e-06
-2.73574e-05
-0.000187727
0.000177594
3.16056e-05
5.88206e-06
-0.00214523
-0.00368063
-8.36503e-05
-7.95081e-05
-8.08325e-05
-7.84383e-05
-0.00313587
-0.00140103
-7.39997e-05
-7.47566e-05
-7.19924e-05
-8.14614e-05
-0.00129476
-0.00434655
-7.82744e-05
-6.70151e-05
-7.47489e-05
-7.23495e-05
-0.000777153
-0.00372042
-7.88931e-05
-7.96617e-05
-8.29547e-05
-7.17575e-05
9.35123e-06
-4.70539e-05
1.49838e-05
0.00017085
-2.41542e-05
6.73327e-06
-0.000155673
0.000145488
7.44857e-06
2.74182e-06
-0.00261063
-9.53095e-05
-7.83563e-05
-8.8722e-05
-8.36719e-05
-0.000176991
-0.000199508
-0.000202812
-0.000170978
2.71754e-05
-2.9265e-05
1.40027e-05
-7.39077e-05
-0.00312141
0.000478448
-0.000102738
-9.02104e-05
-9.42631e-05
-9.74949e-05
-0.000111309
-6.50215e-05
-8.21494e-05
-0.000101648
-0.00011439