/*--------------------------------*- C++ -*----------------------------------*\
| =========                 |                                                 |
| \\      /  F ield         | OpenFOAM: The Open Source CFD Toolbox           |
|  \\    /   O peration     | Version:  2.4.0                                 |
|   \\  /    A nd           | Web:      www.OpenFOAM.org                      |
|    \\/     M anipulation  |                                                 |
\*---------------------------------------------------------------------------*/
FoamFile
{
    version     2.0;
    format      ascii;
    class       volVectorField;
    location    "60";
    object      U;
}
// * * * * * * * * * * * * * * * * * * * * * * * * * * * * * * * * * * * * * //

dimensions      [0 1 -1 0 0 0 0];

internalField   nonuniform List<vector> 
43096
(
(0.00110938 -0.00243839 -0.00642357)
(-0.0505265 0.00287135 -0.000736653)
(-0.0710767 0.00236262 -0.00323288)
(-0.0609303 0.00204045 -0.00395451)
(-0.0428481 0.0016129 -0.00360427)
(-0.025557 0.00131091 -0.00271761)
(-0.0125226 0.000801853 -0.00217552)
(-0.00219998 0.000353656 -0.00171384)
(0.00100824 0.0488065 -0.0100486)
(-0.0569585 0.0236688 0.00198575)
(-0.0649962 -0.0114515 0.000796685)
(-0.0510851 -0.020968 0.000946175)
(-0.0361371 -0.0185847 0.00088071)
(-0.0229086 -0.0135459 0.000657778)
(-0.0122859 -0.00899885 0.000489923)
(-0.00499398 -0.00606104 0.000372897)
(0.00608713 0.0970303 -0.0128483)
(-0.0773102 0.0325886 -2.31684e-05)
(-0.0487449 -0.0250955 -0.00498645)
(-0.0211964 -0.0377144 -0.00197097)
(-0.0108602 -0.0341214 -0.000240566)
(-0.00678706 -0.0265514 0.000236588)
(-0.00381801 -0.0191416 0.00025217)
(-0.00139094 -0.0135792 0.000388129)
(0.010347 0.122415 -0.0172851)
(-0.0963085 0.0263198 -0.00130112)
(-0.0350856 -0.0197939 -0.00930897)
(0.00863431 -0.0336807 -0.00529215)
(0.017651 -0.03151 -0.00171594)
(0.0123441 -0.0254506 -0.00038146)
(0.00602464 -0.019657 -8.58409e-05)
(0.00192278 -0.0145766 7.50062e-05)
(0.0134195 0.102192 -0.015151)
(-0.104825 0.0134407 -0.00317735)
(-0.0283933 -0.00303841 -0.0123157)
(0.0242054 -0.0101247 -0.00790232)
(0.0343181 -0.0121341 -0.00252754)
(0.0237682 -0.0121111 -0.000600597)
(0.0120379 -0.0112253 -0.000207349)
(0.00404951 -0.00935903 -1.00228e-05)
(0.0155068 -0.0821978 -0.0134601)
(-0.106293 0.00405973 -0.00329437)
(-0.0315454 0.0156682 -0.0119032)
(0.0202576 0.0171615 -0.0071743)
(0.0307497 0.0116819 -0.00218197)
(0.0213509 0.00502895 -0.000462393)
(0.010708 -4.44765e-05 5.22658e-06)
(0.00359994 -0.00233291 2.46676e-05)
(0.00956925 -0.109755 -0.017942)
(-0.104941 -0.00138946 -0.00145477)
(-0.0470837 0.0321248 -0.0077497)
(-0.00332364 0.0358019 -0.00344846)
(0.00828329 0.0260764 -0.000859887)
(0.0068811 0.0147043 5.53357e-05)
(0.00347063 0.00639273 0.000122543)
(0.000921441 0.00203433 9.90049e-05)
(0.00338885 -0.0690295 -0.0143846)
(-0.100571 -0.00140563 7.29357e-05)
(-0.0723983 0.0305704 -0.00257884)
(-0.0377395 0.0277759 -0.000126635)
(-0.0191801 0.0176531 0.000733655)
(-0.00911119 0.00907289 0.000634483)
(-0.00372929 0.00366563 0.00031199)
(-0.00150504 0.00138381 0.000118298)
(0.00149868 -0.00641796 0.0171155)
(-0.0562077 0.00357069 0.00648747)
(-0.0736614 -0.00100383 0.00390661)
(-0.0619883 -0.00241788 0.00119047)
(-0.0432767 -0.00251272 -0.000879001)
(-0.025863 -0.00213391 -0.00168077)
(-0.0127508 -0.00148087 -0.00135271)
(-0.00308546 -0.00153865 -0.000802275)
(-0.00960685 0.0589387 0.0141331)
(-0.0415315 0.0222729 -0.0109929)
(-0.0357556 -0.0107376 -0.007134)
(-0.0305954 -0.019504 -0.00230508)
(-0.0233322 -0.0202837 -0.000102905)
(-0.0149494 -0.0173407 0.000666756)
(-0.00760972 -0.0124529 0.000996634)
(-0.00432625 -0.0080459 0.00137458)
(-0.105282 0.184295 0.131366)
(0.0640569 -0.0213472 -0.0481825)
(0.0274879 -0.0211263 -0.0272579)
(0.0106006 -0.0232262 -0.0109808)
(0.0026295 -0.0236331 -0.00360982)
(0.000280677 -0.0208874 -0.000762957)
(0.000460221 -0.0153652 0.00025133)
(0.00064849 -0.010574 0.00109791)
(-0.180604 0.0616686 0.215522)
(0.147591 0.00654317 -0.0641641)
(0.0861981 -0.00429112 -0.0401665)
(0.0485389 -0.0121758 -0.018669)
(0.0267201 -0.0154675 -0.00710473)
(0.01405 -0.0153246 -0.00229209)
(0.00664453 -0.0120962 -0.000694448)
(0.00324326 -0.0089555 -9.07618e-05)
(-0.194402 0.0461473 0.235899)
(0.158369 0.00429318 -0.0658757)
(0.100525 0.00417025 -0.0424301)
(0.0596803 0.00142374 -0.020521)
(0.0343863 -0.00213351 -0.00812363)
(0.0187038 -0.00470287 -0.00275254)
(0.00911444 -0.00502975 -0.000932792)
(0.00483001 -0.00526287 -0.000538746)
(-0.196599 0.0297045 0.238135)
(0.141891 0.00354752 -0.0654448)
(0.0781073 0.0131802 -0.0401201)
(0.0423282 0.0144854 -0.0181074)
(0.0230936 0.0104027 -0.00672216)
(0.0124557 0.00530577 -0.00212504)
(0.00603693 0.00114333 -0.000710463)
(0.00378378 -0.00119124 -0.000374773)
(-0.184203 0.0114013 0.218725)
(0.051317 0.038196 -0.049139)
(0.0120799 0.0325393 -0.0265368)
(0.00101086 0.0233977 -0.00990146)
(-0.00128895 0.0154902 -0.00293867)
(-0.000357825 0.0088439 -0.00056424)
(0.000388333 0.00351789 7.17315e-05)
(0.00105313 0.00113143 0.000146145)
(-0.200799 -0.478839 0.144161)
(-0.062271 0.00164597 -0.00962648)
(-0.0472855 0.0237245 -0.011044)
(-0.0320734 0.017588 -0.003507)
(-0.0182129 0.011508 -0.000256268)
(-0.00834504 0.00667789 0.00040943)
(-0.00296084 0.00273546 0.000364878)
(-0.000647197 0.00103642 0.000221556)
(0.00393615 -0.00423259 -0.0070605)
(-0.050614 0.00545358 -0.000431771)
(-0.0736463 0.000224934 -0.000543675)
(-0.0626771 -0.0016129 -0.000273729)
(-0.0437926 -0.00208037 -6.38619e-05)
(-0.0259498 -0.00186591 3.48302e-05)
(-0.0125661 -0.00125967 3.66811e-05)
(-0.00262135 -0.00121657 -1.82893e-05)
(-0.0074242 0.064689 -0.00218115)
(-0.0415444 0.0222701 0.010971)
(-0.0357703 -0.0107322 0.00712528)
(-0.0306085 -0.0194959 0.00231221)
(-0.0233425 -0.0202753 0.000122463)
(-0.0149556 -0.0173338 -0.000643624)
(-0.00761338 -0.0124495 -0.00098003)
(-0.00423471 -0.0072441 -0.00050657)
(-0.18545 0.233786 0.0342315)
(0.0640287 -0.0213475 0.048157)
(0.0274595 -0.0211217 0.0272387)
(0.0105756 -0.023221 0.0109747)
(0.00261118 -0.0236271 0.00362155)
(0.000269316 -0.0208813 0.000787752)
(0.000456433 -0.0153617 -0.000229156)
(0.000945608 -0.00920656 -0.000367227)
(0.381212 0.000814604 9.39616e-05)
(0.14755 0.0065399 0.0641384)
(0.086159 -0.00429051 0.040146)
(0.0485058 -0.0121749 0.0186585)
(0.0266952 -0.0154661 0.00711116)
(0.0140346 -0.0153223 0.00231505)
(0.00664012 -0.0120948 0.000718354)
(0.00316682 -0.00748876 6.6042e-05)
(0.382686 0.000199176 6.02384e-05)
(0.158326 0.00429517 0.0658436)
(0.100484 0.00416934 0.0424089)
(0.059645 0.00142094 0.0205106)
(0.0343594 -0.00213674 0.00812875)
(0.0186867 -0.00470545 0.00277475)
(0.00910938 -0.00503105 0.000955016)
(0.00461838 -0.00449615 0.000255902)
(0.382668 -2.93525e-05 6.17897e-05)
(0.141854 0.00355143 0.0654224)
(0.0780712 0.0131771 0.0401011)
(0.0422978 0.0144793 0.0180974)
(0.0230702 0.0103955 0.00672964)
(0.0124401 0.00529847 0.00214891)
(0.00603172 0.00113833 0.00073462)
(0.00361304 -0.00110713 0.00018571)
(0.380472 -0.000554277 0.000105952)
(0.0513008 0.0381974 0.0491161)
(0.0120575 0.0325337 0.0265209)
(0.000989536 0.0233882 0.0099003)
(-0.0013059 0.0154798 0.00295639)
(-0.000368784 0.00883495 0.000593033)
(0.000383706 0.00351145 -4.82213e-05)
(0.00116764 0.000783178 -1.58418e-05)
(-0.317551 -0.591637 -0.00155916)
(-0.0531966 0.000940663 0.00749782)
(-0.0438116 0.020705 0.00560395)
(-0.0314217 0.0152505 0.00185808)
(-0.0183971 0.0101339 0.000293886)
(-0.00856237 0.00599733 -8.91664e-05)
(-0.00299531 0.00238773 -0.00013582)
(-0.000493103 0.000815118 -9.66297e-05)
(0.000780933 -0.00636184 -0.0139098)
(-0.057006 0.00298969 -0.00650699)
(-0.0737801 -0.00142952 -0.00333415)
(-0.0619865 -0.00276107 -0.000455012)
(-0.0432491 -0.00279454 0.00154513)
(-0.0259099 -0.00231625 0.00224516)
(-0.0128519 -0.00167375 0.00177088)
(-0.00317429 -0.0016099 0.00113257)
(-0.0103353 0.0574196 -0.0126026)
(-0.0594106 0.028748 -0.00221144)
(-0.0561172 -0.00767902 0.00156446)
(-0.0434756 -0.0199151 -0.00084582)
(-0.030233 -0.020794 -0.00200218)
(-0.0188272 -0.0174851 -0.00186817)
(-0.010018 -0.0129599 -0.00161117)
(-0.00417059 -0.00901167 -0.00167644)
(-0.194746 0.225213 -0.424015)
(-0.0445244 0.0264004 0.0154502)
(-0.0200078 -0.0131804 0.0230837)
(-0.0104595 -0.0261661 0.0095306)
(-0.00607277 -0.027401 0.00215516)
(-0.00341648 -0.0235739 -0.000293218)
(-0.00145112 -0.0180612 -0.000839221)
(6.04636e-06 -0.0127624 -0.00129797)
(-0.307167 0.0845219 -0.586593)
(-0.0106671 0.0210824 0.0275279)
(0.0183155 -0.00625613 0.0382612)
(0.0238188 -0.0182523 0.0196317)
(0.019289 -0.0214217 0.0068197)
(0.0125171 -0.0197522 0.00166422)
(0.00677409 -0.0160684 0.000366691)
(0.00300304 -0.0114937 9.85777e-05)
(-0.302815 0.0381316 -0.616523)
(-0.00054237 0.0100829 0.0302541)
(0.0346124 0.00282045 0.0443266)
(0.0395673 -0.00244673 0.0238522)
(0.0312501 -0.00602028 0.00880977)
(0.0202269 -0.00801103 0.0025387)
(0.0108684 -0.00830344 0.000861199)
(0.00466406 -0.00674489 0.000531611)
(-0.30447 -0.0190575 -0.617359)
(-0.00529102 -0.00081684 0.0303639)
(0.024308 0.0119841 0.0418003)
(0.0290095 0.0139704 0.0216482)
(0.0234051 0.0101024 0.00739615)
(0.0156711 0.00456863 0.00188968)
(0.00857523 0.000261244 0.000599319)
(0.00372109 -0.00144277 0.000351073)
(-0.31111 -0.0641296 -0.587137)
(-0.0380555 0.00141379 0.0210156)
(-0.0160134 0.0233815 0.0285304)
(-0.00487286 0.0244964 0.0118761)
(0.000645249 0.0183754 0.00288803)
(0.00248899 0.0108234 -7.05552e-05)
(0.00212542 0.00473707 -0.000368883)
(0.000996326 0.00153716 -0.0002385)
(-0.0952276 -0.226419 -0.197761)
(-0.0797621 -0.00349238 0.00204932)
(-0.0601874 0.0209292 0.00955431)
(-0.0365726 0.0187759 0.00210805)
(-0.0191503 0.0129565 -0.000806856)
(-0.00840788 0.00752343 -0.000994752)
(-0.00300889 0.00331149 -0.000578011)
(-0.00097678 0.00133326 -0.000263115)
(-0.043774 0.00305619 -0.000108538)
(0.000423026 0.0408209 -0.00981733)
(-0.0512592 0.0264615 0.00200739)
(0.00106558 -0.006331 0.0144901)
(-0.0516101 0.00389531 0.0068239)
(-0.0104465 0.0480335 0.0120011)
(-0.0467793 0.0358292 0.00746895)
(-0.0709003 0.00239301 -0.00302339)
(-0.0561347 0.0215726 0.00186036)
(-0.0673819 -0.00681814 0.00125734)
(-0.0569576 0.00298832 0.00644648)
(-0.0739684 -0.000978365 0.00376864)
(-0.0609896 0.0187594 0.00409316)
(-0.0666348 0.00459863 0.00352015)
(-0.062736 0.00203951 -0.00348711)
(-0.0667168 -0.009194 0.00118224)
(-0.0559754 -0.0174563 0.00121123)
(-0.0737694 -0.00143366 0.00332204)
(-0.0641556 -0.00263555 0.000791574)
(-0.0657171 -0.0055873 0.00237096)
(-0.0606022 -0.0111308 0.00264621)
(-0.0449684 0.00155367 -0.00327815)
(-0.0539849 -0.0176725 0.00115233)
(-0.0403777 -0.0160566 0.00104942)
(-0.0619744 -0.00276539 0.000456522)
(-0.0456039 -0.00280472 -0.00134182)
(-0.0536492 -0.0137166 0.00248899)
(-0.0458164 -0.0143615 0.0024826)
(-0.0275355 0.00123683 -0.00285707)
(-0.0384075 -0.0155639 0.000940904)
(-0.025918 -0.0117145 0.000744364)
(-0.0432366 -0.00279818 -0.00154329)
(-0.0278218 -0.00240312 -0.00222144)
(-0.0379874 -0.0140365 0.00199721)
(-0.0305219 -0.0129453 0.00172436)
(-0.0139887 0.000844102 -0.00223126)
(-0.0242447 -0.0111573 0.000642817)
(-0.0141697 -0.00774221 0.000504808)
(-0.0259005 -0.00231825 -0.00224699)
(-0.01412 -0.00180415 -0.00187939)
(-0.0237426 -0.0115675 0.00132965)
(-0.017763 -0.0100268 0.00107963)
(-0.00326151 0.000213518 -0.00182181)
(-0.012949 -0.00730947 0.000440436)
(-0.00600662 -0.00520814 0.000314013)
(-0.0128459 -0.00167297 -0.00177746)
(-0.00433537 -0.00167765 -0.00125814)
(-0.0126278 -0.00846091 0.00101223)
(-0.00851834 -0.00722753 0.000863136)
(0.00105975 0.000709527 -0.000190609)
(-0.00520688 -0.00496309 0.000294096)
(-0.000451243 -0.000956555 0.000837698)
(-0.00317367 -0.00160795 -0.00114672)
(0.0016788 0.00109708 -0.000831451)
(-0.0052317 -0.00593706 0.000937069)
(-0.00114802 -0.00408829 0.00191475)
(-0.0521594 0.0293484 0.0023105)
(0.00556657 0.092705 -0.0122735)
(-0.0698479 0.0431043 0.00267142)
(-0.0102967 0.0574073 0.012654)
(-0.0520074 0.0542375 0.0105474)
(-0.0838091 0.251754 0.17291)
(-0.0700894 0.0717467 0.0143799)
(-0.0659847 -0.00877251 0.000872888)
(-0.0734851 0.0318563 0.000782402)
(-0.0552829 -0.0217925 -0.00358508)
(-0.0593942 0.0287531 0.00218757)
(-0.0604095 0.0072347 -0.0011822)
(-0.0574305 0.0350683 -0.00335963)
(-0.0507372 0.00739041 -0.0115885)
(-0.0530894 -0.0207276 0.000966792)
(-0.0511522 -0.0254768 -0.00321469)
(-0.0276727 -0.0372133 -0.00169176)
(-0.0561016 -0.00768844 -0.00156949)
(-0.0501331 -0.0160823 -0.000423822)
(-0.0430581 -0.0108523 -0.00953083)
(-0.0359975 -0.020222 -0.00674096)
(-0.0379953 -0.0191474 0.000975206)
(-0.025395 -0.0373681 -0.00117561)
(-0.0155607 -0.0342129 -4.41908e-05)
(-0.0434567 -0.0199296 0.000854134)
(-0.0367979 -0.0210946 0.00184834)
(-0.0301829 -0.0245974 -0.00308744)
(-0.0248121 -0.0260235 -0.000698577)
(-0.0244748 -0.014184 0.00075953)
(-0.0145982 -0.0333576 6.46529e-05)
(-0.00987592 -0.0267682 0.000401107)
(-0.0302145 -0.0208092 0.00201835)
(-0.0243416 -0.0194673 0.00218742)
(-0.0201132 -0.0255197 0.000515139)
(-0.0160451 -0.0238823 0.00133085)
(-0.0134341 -0.00951567 0.000552452)
(-0.00929546 -0.0257401 0.000358177)
(-0.00561199 -0.0193105 0.000368284)
(-0.0188147 -0.0174966 0.00188413)
(-0.0142435 -0.015394 0.00177133)
(-0.0122754 -0.0216131 0.00144191)
(-0.00915673 -0.0190924 0.0015207)
(-0.00573771 -0.00635331 0.000390666)
(-0.00509948 -0.0183883 0.000328468)
(-0.00215509 -0.0134611 0.000413691)
(-0.0100121 -0.0129631 0.00162016)
(-0.00686078 -0.0110105 0.0015646)
(-0.00627837 -0.0162943 0.00149036)
(-0.00400976 -0.0137862 0.00159988)
(-0.00057572 -0.00318823 0.000930052)
(-0.00186471 -0.0129551 0.000469114)
(-0.00047316 -0.0130726 0.00013521)
(-0.00416938 -0.00900382 0.00167762)
(-0.00100763 -0.00500485 0.00207446)
(-0.0021212 -0.0114564 0.0019564)
(0.000215386 -0.00847825 0.00186621)
(-0.0741084 0.0442869 0.00279876)
(0.00931754 0.120351 -0.0169497)
(-0.094344 0.0379704 0.00289791)
(-0.194725 0.225296 0.423967)
(-0.0879059 0.0572704 0.0197116)
(-0.310806 0.0849718 0.579377)
(-0.072551 0.0470871 0.00937345)
(-0.0534205 -0.0213309 -0.00564319)
(-0.0948835 0.0284476 -0.000832404)
(-0.0450119 -0.0169879 -0.00877377)
(-0.0445053 0.0264128 -0.0154695)
(-0.0269917 0.00047517 -0.0290502)
(-0.0294833 0.0212327 -0.0213088)
(-0.00839387 0.000566772 -0.0361331)
(-0.02355 -0.0374755 -0.00269091)
(-0.036842 -0.0208205 -0.00780809)
(0.00193278 -0.0346585 -0.00515965)
(-0.0199743 -0.0131869 -0.0231001)
(-0.0128498 -0.0222832 -0.0163683)
(-0.00285 -0.0112845 -0.0287811)
(0.00515373 -0.0198366 -0.0217275)
(-0.0117244 -0.0349483 -0.000424522)
(0.00540992 -0.0353686 -0.0042001)
(0.0142192 -0.033706 -0.00168977)
(-0.0104203 -0.0261783 -0.00953688)
(-0.00731849 -0.0278104 -0.00483265)
(0.00523462 -0.0239202 -0.0134278)
(0.00707218 -0.0259633 -0.0079371)
(-0.0071882 -0.0275791 0.000227965)
(0.0144123 -0.0330026 -0.00129053)
(0.0108731 -0.027302 -0.000291971)
(-0.00603611 -0.0274143 -0.00214607)
(-0.00438423 -0.0259039 -0.000424263)
(0.00596432 -0.0260103 -0.00406333)
(0.00555424 -0.0249914 -0.00166507)
(-0.00419762 -0.0200746 0.000277583)
(0.0101717 -0.02646 -0.000184754)
(0.00541561 -0.0210162 4.50949e-05)
(-0.00339092 -0.0235869 0.000312354)
(-0.00227461 -0.021088 0.000700278)
(0.00437536 -0.023002 -0.000453421)
(0.00354253 -0.0208082 0.000176889)
(-0.00158944 -0.0140956 0.000332256)
(0.00488356 -0.0202172 3.68734e-05)
(0.00194051 -0.0154355 0.000169463)
(-0.00144042 -0.0180693 0.000854283)
(-0.000579486 -0.0154359 0.00102952)
(0.00268499 -0.0180519 0.000393841)
(0.00199054 -0.0154884 0.000556636)
(-0.000445371 -0.0138879 8.65081e-06)
(0.00152165 -0.014888 0.000193183)
(-0.000275714 -0.0152738 -0.000654361)
(5.63204e-06 -0.0127577 0.00130292)
(0.00050316 -0.00819375 0.00167892)
(0.00141189 -0.0127247 0.000762617)
(0.0008721 -0.00706566 0.000476152)
(-0.096057 0.0354567 0.00281051)
(0.0129569 0.107388 -0.0154579)
(-0.10452 0.0186843 0.00176755)
(-0.30715 0.0845977 0.586607)
(-0.0591587 0.0411071 0.0117144)
(-0.301749 0.0390668 0.615099)
(-0.0552734 0.0283248 0.0145934)
(-0.0436478 -0.0161932 -0.0102386)
(-0.104037 0.01514 -0.00319112)
(-0.0390864 -0.003389 -0.0131681)
(-0.0106344 0.021093 -0.02755)
(0.0125377 0.00432695 -0.0448424)
(-0.0025029 0.0173671 -0.0295514)
(0.0232603 0.00679513 -0.0495109)
(0.005192 -0.0330243 -0.00633557)
(-0.0286376 -0.00513951 -0.0120728)
(0.0190549 -0.0128224 -0.00845301)
(0.0183664 -0.00625861 -0.0382824)
(0.0251446 -0.014065 -0.0295296)
(0.0297627 -0.00113034 -0.0417714)
(0.0364802 -0.00691579 -0.0336998)
(0.0175508 -0.0321759 -0.00217391)
(0.0232407 -0.0133867 -0.00718515)
(0.0333758 -0.0149566 -0.0029449)
(0.0238756 -0.0182577 -0.0196444)
(0.0231335 -0.0206894 -0.0120051)
(0.0340997 -0.0108136 -0.0222959)
(0.0325415 -0.0130495 -0.0141833)
(0.0131855 -0.0262183 -0.000498286)
(0.0331928 -0.014962 -0.00230112)
(0.0243764 -0.0143114 -0.000650127)
(0.0193399 -0.021428 -0.00681882)
(0.0164718 -0.0209332 -0.00345022)
(0.026794 -0.0146333 -0.00792789)
(0.0228712 -0.014841 -0.00427283)
(0.00667718 -0.0203938 -9.61689e-05)
(0.022926 -0.0141561 -0.000481963)
(0.0128012 -0.0128346 -0.000132018)
(0.0125541 -0.0197588 -0.00164893)
(0.00974812 -0.0181271 -0.000732915)
(0.0174017 -0.0146469 -0.0021165)
(0.0134444 -0.014032 -0.00104345)
(0.00241357 -0.0150998 5.28454e-05)
(0.011583 -0.0125803 -0.000133281)
(0.0047387 -0.0105196 2.76451e-05)
(0.00679051 -0.0160734 -0.000350494)
(0.0047488 -0.0138847 -0.000149337)
(0.00933902 -0.0127538 -0.000590267)
(0.00643988 -0.0114293 -0.000356978)
(-0.000255889 -0.0149122 -0.000731296)
(0.00386571 -0.0101997 4.41372e-05)
(-0.000258536 -0.0100629 -0.00108915)
(0.00300142 -0.0114895 -9.39477e-05)
(0.00111029 -0.00687346 0.000392361)
(0.00398245 -0.00942871 -0.000288687)
(0.00171405 -0.00470756 0.000395024)
(-0.105224 0.0162645 0.00201058)
(0.0165522 -0.0700674 -0.0116993)
(-0.10598 0.00365426 0.00235325)
(-0.302784 0.0381804 0.616556)
(-0.0554182 0.0148838 0.0172392)
(-0.30498 -0.0200929 0.618085)
(-0.056452 0.00182276 0.0186971)
(-0.0389539 -0.0015607 -0.013402)
(-0.10641 0.00504016 -0.00311572)
(-0.0412454 0.0126796 -0.013407)
(-0.000494606 0.0100861 -0.0303005)
(0.0268461 0.00575177 -0.0514304)
(-0.00137287 0.0051236 -0.0302459)
(0.0254774 0.00697237 -0.0517255)
(0.0200808 -0.00945216 -0.00927926)
(-0.0306863 0.0134061 -0.0122826)
(0.0178263 0.0140254 -0.00956206)
(0.0346775 0.00282235 -0.04435)
(0.0417723 -2.59413e-05 -0.0354417)
(0.0329305 0.00769558 -0.0445521)
(0.0400494 0.00738367 -0.0353205)
(0.0345288 -0.0120478 -0.00316865)
(0.0218661 0.0138265 -0.00818842)
(0.03263 0.00981794 -0.00310758)
(0.0396318 -0.00244359 -0.0238657)
(0.0373154 -0.00442067 -0.0152614)
(0.0380441 0.00611773 -0.0237382)
(0.0359445 0.00447971 -0.0150638)
(0.0252676 -0.0121647 -0.000780422)
(0.0324523 0.00905236 -0.00241127)
(0.023981 0.00380459 -0.000741126)
(0.0313071 -0.00601534 -0.00881168)
(0.0264003 -0.0072037 -0.00484983)
(0.0302837 0.00217012 -0.00865072)
(0.0255953 0.000369686 -0.00472594)
(0.0132988 -0.0113899 -0.000210079)
(0.0225816 0.00309955 -0.000510156)
(0.0125664 -0.000841128 -3.95078e-05)
(0.0202691 -0.00800775 -0.00252492)
(0.0156073 -0.00837015 -0.00133881)
(0.0196887 -0.0016604 -0.00241342)
(0.0152306 -0.00300474 -0.00128229)
(0.00494494 -0.00963869 -2.74131e-05)
(0.0113789 -0.00128826 -5.63886e-05)
(0.00468483 -0.00309367 -2.51634e-05)
(0.0108886 -0.00830121 -0.000845473)
(0.00746601 -0.00779489 -0.000586949)
(0.0105754 -0.00396469 -0.000831245)
(0.00735333 -0.00434162 -0.000614388)
(-0.000250454 -0.00914808 -0.00112757)
(0.00384412 -0.00314873 3.58504e-06)
(4.70524e-05 -0.00219057 -0.00111894)
(0.00466343 -0.00674026 -0.000527216)
(0.00194176 -0.00432768 0.000314296)
(0.00457806 -0.00395976 -0.000538875)
(0.00217977 -0.00145399 2.60378e-05)
(-0.105941 0.00203572 0.00200379)
(0.0101369 -0.110324 -0.0174615)
(-0.10419 -0.00715228 0.00220188)
(-0.304427 -0.0190441 0.617413)
(-0.0572168 -0.00990075 0.0154815)
(-0.307788 -0.0642033 0.593897)
(-0.0620819 -0.021126 0.0139198)
(-0.0419426 0.0146798 -0.0131145)
(-0.105008 -0.00012678 -0.00209756)
(-0.0528098 0.0288738 -0.0101503)
(-0.00524439 -0.000822742 -0.0303812)
(0.0189041 0.00681495 -0.0504593)
(-0.015644 -0.00242517 -0.0282653)
(0.00500751 0.0108522 -0.0458175)
(0.0160826 0.0174143 -0.00843743)
(-0.0441614 0.0310374 -0.00921963)
(-0.00270482 0.0352094 -0.00571225)
(0.0243655 0.011992 -0.0418227)
(0.0311939 0.014188 -0.0332587)
(0.00944497 0.0176567 -0.0383299)
(0.0163373 0.0210784 -0.0286783)
(0.0308845 0.0125502 -0.00286838)
(0.000880751 0.0347881 -0.00452846)
(0.0113593 0.0268041 -0.00177516)
(0.0290688 0.0139845 -0.0216614)
(0.0283858 0.0125299 -0.0135435)
(0.0159937 0.0206674 -0.0184824)
(0.0168083 0.018976 -0.0108609)
(0.0226744 0.00583338 -0.000658526)
(0.0117552 0.0253101 -0.00131782)
(0.00965057 0.0154913 -0.000325425)
(0.0234604 0.0101169 -0.00739748)
(0.0203606 0.00753277 -0.00393766)
(0.0145227 0.0158781 -0.00596903)
(0.0130766 0.0124545 -0.0028393)
(0.0118245 0.000484873 1.63196e-05)
(0.00912049 0.0141938 -0.000206797)
(0.00510102 0.00691657 -4.58257e-05)
(0.0157121 0.00458232 -0.00187466)
(0.012262 0.00232496 -0.000927401)
(0.0104134 0.00880396 -0.00124423)
(0.00838525 0.00584133 -0.000547491)
(0.0044035 -0.00224794 1.72907e-06)
(0.00462176 0.00604607 -4.27485e-05)
(0.00175272 0.00203049 -8.73689e-06)
(0.00859551 0.000271604 -0.000583185)
(0.00594874 -0.000951792 -0.000428262)
(0.00596293 0.00314571 -0.000317172)
(0.00420225 0.00137446 -0.000250412)
(-0.000167179 -0.0013592 -0.000993682)
(0.00137153 0.00175817 -1.02248e-05)
(-9.95499e-05 0.0033387 -0.000589649)
(0.00372101 -0.00143642 -0.000346001)
(0.0019528 -0.00113697 0.000132385)
(0.00261237 0.000437313 -0.000290092)
(0.000884648 0.000772184 0.000164379)
(-0.103889 -0.00881558 0.00251525)
(0.0054567 -0.0783082 -0.0168546)
(-0.0986865 -0.0112738 0.00218734)
(-0.311118 -0.0641636 0.587157)
(-0.0773908 -0.0238123 0.0131711)
(-0.20626 -0.19185 0.443502)
(-0.0955361 -0.027591 0.0247341)
(-0.0553787 0.0298309 -0.00870143)
(-0.101772 -0.00243106 -0.00100205)
(-0.0741713 0.0303406 -0.00493963)
(-0.0380329 0.00141265 -0.0210241)
(-0.0196938 0.0173876 -0.0362835)
(-0.0585076 0.000755687 -0.0151824)
(-0.0436527 0.0193551 -0.0285598)
(-0.00677255 0.0362417 -0.0047149)
(-0.0685936 0.0317649 -0.00432708)
(-0.036789 0.0312648 -0.00163077)
(-0.0159756 0.023394 -0.0285451)
(-0.00722775 0.0263604 -0.0205318)
(-0.0367187 0.0248403 -0.0221389)
(-0.0266475 0.0265484 -0.0147522)
(0.00777729 0.0276102 -0.00125288)
(-0.0334874 0.0301257 -0.00104527)
(-0.017865 0.0211923 0.000207103)
(-0.00482904 0.024515 -0.0118826)
(-0.000866823 0.0224467 -0.00647183)
(-0.0207214 0.024086 -0.00769159)
(-0.0140574 0.0212212 -0.00332865)
(0.00725385 0.0160373 -5.29212e-05)
(-0.0162529 0.0197912 0.000350063)
(-0.00840818 0.0115824 0.000530732)
(0.000688748 0.0183964 -0.00287953)
(0.00212644 0.0148377 -0.00083826)
(-0.00975379 0.0173687 -0.000989371)
(-0.00593303 0.0138632 0.00028226)
(0.00383312 0.00729811 0.000136475)
(-0.00757775 0.0105131 0.000514961)
(-0.00350317 0.00500871 0.000311599)
(0.0025224 0.0108437 8.93607e-05)
(0.00255807 0.00770622 0.00037727)
(-0.00345659 0.010246 0.000685622)
(-0.00172494 0.00738293 0.000710106)
(0.00123685 0.00232174 0.000107665)
(-0.00309262 0.00438043 0.000269984)
(-0.00142186 0.00179198 0.000142833)
(0.00214199 0.00475144 0.000384984)
(0.00158811 0.002772 0.000303616)
(-0.000752945 0.00464086 0.000597545)
(-0.000271267 0.00287567 0.000457899)
(-0.000126606 0.00361664 -0.000475551)
(-0.00129975 0.00163216 0.000122388)
(-0.000188091 0.00230657 0.000274508)
(0.000997975 0.00154255 0.000245308)
(0.00059951 0.00089525 0.000174414)
(-0.000123659 0.00174695 0.000318835)
(4.33716e-05 0.00103445 0.000174742)
(-0.0970663 -0.00988349 0.00236657)
(0.00534108 0.00254826 -0.00518039)
(-0.0983285 -0.00293717 -0.00160039)
(-0.0952222 -0.226447 0.197725)
(-0.0858662 -0.0401347 0.0229262)
(0.00389136 0.0133321 0.0524796)
(-0.100482 -0.00362543 0.0147736)
(-0.0776685 0.0293795 -0.0029202)
(-0.103621 -0.00252852 -0.00225202)
(-0.0941863 -0.00174436 -0.0048176)
(-0.0797472 -0.00349654 -0.00205987)
(-0.0711811 0.0157467 -0.011346)
(-0.104866 -0.0010119 0.0108841)
(-0.0897855 0.00462903 -0.000689944)
(-0.0411245 0.0289639 -0.000494826)
(-0.0895627 -0.00176834 -0.00493165)
(-0.0564329 -0.00195623 -0.00481975)
(-0.0601623 0.0209414 -0.00955392)
(-0.0473358 0.0213589 -0.00571269)
(-0.0849665 0.00482518 -0.00073629)
(-0.0529779 0.00425893 0.000528549)
(-0.0209807 0.0189731 0.000693438)
(-0.0523077 -0.00195699 -0.00471723)
(-0.0291784 -0.00173627 -0.00371336)
(-0.0365415 0.0187959 -0.00209449)
(-0.0267374 0.0160801 -0.000116031)
(-0.0491496 0.00402396 0.00071341)
(-0.0271979 0.00305158 0.000623872)
(-0.0100981 0.0100412 0.000685546)
(-0.0266411 -0.00166988 -0.00353576)
(-0.0132205 -0.00114156 -0.00230309)
(-0.0191196 0.0129771 0.000830847)
(-0.0128735 0.0102269 0.00105122)
(-0.0247995 0.00276997 0.000566146)
(-0.0115919 0.00213385 -0.000118967)
(-0.00422583 0.00421644 0.000357317)
(-0.0118518 -0.00105976 -0.00213316)
(-0.00502202 -0.00058069 -0.00111496)
(-0.00838446 0.00753997 0.00101958)
(-0.00511669 0.00532804 0.000722861)
(-0.0102746 0.00188683 -0.000173306)
(-0.00356191 0.00108706 -0.000321758)
(-0.00167348 0.00151088 0.000145454)
(-0.00442431 -0.000528787 -0.000983835)
(-0.00173119 -0.000187176 -0.000453153)
(-0.00299609 0.00332175 0.000594234)
(-0.00168027 0.00204399 0.000386925)
(-0.00304081 0.000832644 -0.000213198)
(-0.00104474 0.000453966 -4.08207e-05)
(-0.000220197 0.00172255 0.000300339)
(-0.00141523 -0.000132934 -0.000410312)
(0.00040157 -0.000336294 -2.44974e-05)
(-0.000971919 0.00133738 0.000271172)
(-9.94928e-05 0.00101514 0.000140622)
(-0.000833355 0.000347131 -5.53411e-05)
(0.000319868 -0.000257858 -0.000360245)
(-0.050758 0.00455694 0.00673912)
(-0.00954834 0.0489932 0.0136376)
(-0.0443886 0.0430622 0.00446113)
(0.00358722 -0.00412975 0.0065932)
(-0.0433658 0.00656297 0.00031136)
(-0.00707196 0.0525875 0.00206443)
(-0.0424051 0.0471527 0.000558402)
(-0.0738642 -0.000490563 0.00431507)
(-0.0554194 0.0214159 0.00142441)
(-0.0623547 0.00830234 0.00123925)
(-0.0505995 0.00545694 0.000456983)
(-0.0736618 0.000870839 0.000584851)
(-0.0527122 0.0250775 -0.000660375)
(-0.0606494 0.0116305 -0.000484464)
(-0.0641749 -0.00225948 0.00153502)
(-0.0618688 -0.00311854 0.000445562)
(-0.0581205 -0.0081819 0.00077239)
(-0.0736427 0.000225287 0.00055902)
(-0.0648727 -0.00135825 0.000331548)
(-0.0607422 -0.000684836 -0.000435238)
(-0.0574681 -0.00611597 -0.000109988)
(-0.0456553 -0.00249663 -0.000667821)
(-0.0520432 -0.0113164 0.000905519)
(-0.044913 -0.0122685 0.00104537)
(-0.0626753 -0.00161396 0.000296984)
(-0.0462287 -0.00201488 0.000110125)
(-0.0517522 -0.00983658 0.000130273)
(-0.0448132 -0.0111237 0.000294277)
(-0.0277897 -0.00221022 -0.00164116)
(-0.0378351 -0.0124855 0.000937579)
(-0.0306118 -0.0118449 0.000898999)
(-0.043792 -0.00208222 8.63865e-05)
(-0.0279199 -0.00192108 -1.31559e-05)
(-0.0379311 -0.0117134 0.000313783)
(-0.030764 -0.01128 0.000345412)
(-0.0140141 -0.00163677 -0.00144014)
(-0.0240913 -0.0106928 0.000755085)
(-0.0181317 -0.00941136 0.000702044)
(-0.0259514 -0.00186674 -2.35405e-05)
(-0.0138153 -0.00142615 -3.99087e-05)
(-0.0242896 -0.0102932 0.000311776)
(-0.0183058 -0.009082 0.000300461)
(-0.00430425 -0.0016585 -0.000868536)
(-0.0129797 -0.00771832 0.000714779)
(-0.00874596 -0.00666911 0.000681643)
(-0.0125684 -0.0012607 -3.83254e-05)
(-0.00380181 -0.00134238 -2.8036e-06)
(-0.013106 -0.00736215 0.000328909)
(-0.00879415 -0.00635088 0.0003098)
(0.00172796 0.00116731 -0.000646723)
(-0.00532368 -0.00546016 0.00076106)
(-0.00120506 -0.00385926 0.00174729)
(-0.00262247 -0.00121602 4.21619e-06)
(0.00168636 0.00111344 -2.28618e-05)
(-0.00524283 -0.00501526 0.000323052)
(-0.0012123 -0.00278771 8.73818e-05)
(-0.0547315 0.0612404 0.00257197)
(-0.179255 0.51117 0.110575)
(-0.0859419 0.0700558 -0.00702409)
(-0.00743098 0.0646877 0.00200249)
(-0.0559709 0.06169 -0.00182994)
(-0.310378 0.599549 -0.00165898)
(-0.0699147 0.0537305 -0.00939297)
(-0.0010578 -0.00475278 0.00190907)
(-0.00193104 -0.00976329 0.00164674)
(0.000377645 -0.00730005 0.00193044)
(-0.00423237 -0.00724418 0.000511758)
(-0.00105768 -0.00365914 0.000103577)
(-0.00163512 -0.00863431 0.000601423)
(0.00120851 -0.00492149 0.000121202)
(-0.0485644 0.00148018 -0.0457242)
(-0.179405 -0.00441782 0.21336)
(0.0615572 0.0151401 -0.0897643)
(-0.185446 0.233792 -0.0342592)
(0.0541343 -0.0573281 -0.018031)
(0.380374 0.000698269 -0.000109188)
(0.247395 -0.0149611 -0.0281163)
(0.000580079 -0.00724135 0.0017882)
(0.00161483 -0.0102146 0.000580458)
(0.00113971 -0.0060352 0.000509731)
(0.000945789 -0.00920651 0.000377114)
(0.00121742 -0.00453862 5.45825e-05)
(0.00177266 -0.00861879 0.000172051)
(0.00152952 -0.00345209 4.78929e-06)
(0.0940136 0.0226797 -0.0976538)
(-0.193101 -0.0217171 0.235361)
(0.096041 0.0147099 -0.0998673)
(0.381216 0.000813289 -9.68318e-05)
(0.292688 0.00333051 -0.0324829)
(0.382669 7.85341e-05 -6.5868e-05)
(0.297293 0.00557709 -0.0349903)
(0.00125774 -0.00593678 0.000474597)
(0.00403076 -0.0074346 -0.000339741)
(0.00211656 -0.00396885 0.000517164)
(0.00316554 -0.00748839 -5.53901e-05)
(0.00164559 -0.00338652 3.19734e-06)
(0.00387919 -0.00632966 -0.000173155)
(0.00251663 -0.00230138 -8.61659e-06)
(0.0938305 0.00884845 -0.10007)
(-0.196993 -0.0393979 0.238664)
(0.09287 -0.00111597 -0.100064)
(0.382691 0.000197899 -6.46856e-05)
(0.296979 0.00310616 -0.035605)
(0.382697 -0.000149324 -6.70904e-05)
(0.296674 0.000190772 -0.0357113)
(0.00219986 -0.00380381 0.000510269)
(0.00475161 -0.00319371 -0.000534216)
(0.00227047 -0.00132528 0.000440201)
(0.00461683 -0.00449515 -0.000243411)
(0.00258746 -0.0022168 -8.99526e-06)
(0.00441545 -0.00277259 -0.000207528)
(0.00256131 -0.000896668 -6.62504e-06)
(0.0936362 -0.00635523 -0.100387)
(-0.184888 -0.0553485 0.22092)
(0.0913344 -0.0130922 -0.0977624)
(0.382672 -3.06297e-05 -6.6068e-05)
(0.296065 -0.00195937 -0.0353766)
(0.381303 -0.00068643 -9.30722e-05)
(0.291155 0.00136784 -0.0328447)