/*--------------------------------*- C++ -*----------------------------------*\
| =========                 |                                                 |
| \\      /  F ield         | OpenFOAM: The Open Source CFD Toolbox           |
|  \\    /   O peration     | Version:  2.4.0                                 |
|   \\  /    A nd           | Web:      www.OpenFOAM.org                      |
|    \\/     M anipulation  |                                                 |
\*---------------------------------------------------------------------------*/
FoamFile
{
    version     2.0;
    format      ascii;
    class       volScalarField;
    location    "70";
    object      epsilon;
}
// * * * * * * * * * * * * * * * * * * * * * * * * * * * * * * * * * * * * * //

dimensions      [0 2 -3 0 0 0 0];

internalField   nonuniform List<scalar> 
43096
(
1.66182e-06
1.5721e-05
2.2013e-05
1.72727e-05
1.0877e-05
5.68367e-06
3.40565e-06
1.58219e-06
2.40847e-05
0.000198198
0.000282832
0.000208993
0.000127131
7.85797e-05
5.34141e-05
3.64257e-05
7.36188e-05
0.00137555
0.00154472
0.00085576
0.000402869
0.000201119
0.000136339
0.000147165
0.000338988
0.00460466
0.00401173
0.00204793
0.000879225
0.000372197
0.000223213
0.000285139
0.00045262
0.00669832
0.00584094
0.00297249
0.00123521
0.000486147
0.000264775
0.000338227
0.0003699
0.00669518
0.00579438
0.00288281
0.00116257
0.000448631
0.000241454
0.000316546
0.000405243
0.00469248
0.00384123
0.00178564
0.000706363
0.00028116
0.000164988
0.000221473
0.000113396
0.00173209
0.00142488
0.00063708
0.000255163
0.000113733
7.30711e-05
7.93876e-05
6.61071e-06
0.000135648
0.000203187
0.000174341
0.000122518
7.90786e-05
4.84584e-05
2.85823e-05
0.000291637
0.000735682
0.000391799
0.000188109
9.30569e-05
5.90058e-05
7.49257e-05
7.7882e-05
0.121778
0.00454167
0.00146868
0.000534533
0.000215516
0.000112642
0.000187897
0.000432756
0.121997
0.00635193
0.00257359
0.000964563
0.000355695
0.000159571
0.000257759
0.000744418
0.129054
0.0065602
0.0028212
0.00111325
0.000413329
0.000175565
0.000268816
0.000800573
0.130375
0.00636415
0.00257144
0.000951279
0.000341223
0.00014901
0.000248937
0.000784607
0.124249
0.00462093
0.00150695
0.000528478
0.000194244
9.36191e-05
0.000163463
0.000618139
0.0391592
0.00165267
0.000765543
0.000298596
0.000118227
5.51535e-05
5.47196e-05
0.000148985
3.21092e-06
0.000149669
0.00024621
0.000214536
0.000152246
9.90269e-05
6.20605e-05
3.91311e-05
0.000344385
0.000735578
0.000391697
0.00018804
9.30087e-05
5.89506e-05
7.48159e-05
0.000102264
0.128777
0.00454137
0.00146846
0.000534409
0.000215439
0.000112557
0.000187608
0.000627108
0.010028
0.00635169
0.00257329
0.000964365
0.000355588
0.000159471
0.000257422
0.00103367
0.0100094
0.0065599
0.00282086
0.00111303
0.000413206
0.000175463
0.000268482
0.00110201
0.0100101
0.00636398
0.00257119
0.000951095
0.000341119
0.00014892
0.000248622
0.00108497
0.010043
0.00462079
0.00150677
0.00052836
0.000194174
9.35583e-05
0.000163258
0.000881416
0.100492
0.00202684
0.000864268
0.000327804
0.00012858
6.07246e-05
6.38459e-05
0.000218532
6.23517e-06
0.000125369
0.000187014
0.000161218
0.000113255
7.29645e-05
4.48692e-05
2.58614e-05
0.000269059
0.000229291
0.000196428
0.000120654
6.67324e-05
4.05019e-05
3.5685e-05
4.4358e-05
0.0351284
0.00173682
0.000883282
0.000392549
0.000174129
8.51434e-05
7.8454e-05
0.000186841
0.114582
0.00364201
0.00184708
0.000794118
0.000319042
0.00013667
0.000113191
0.000324551
0.11866
0.00427508
0.00226586
0.00100067
0.000397296
0.000161501
0.000124352
0.000356219
0.118842
0.0041383
0.00212502
0.000905482
0.000351659
0.000141824
0.000113341
0.000341797
0.113745
0.00287757
0.00133945
0.00054632
0.000213353
9.01274e-05
7.86066e-05
0.000250188
0.0188535
0.000900159
0.000522536
0.000225423
9.31868e-05
4.3763e-05
3.65971e-05
6.82171e-05
1.38319e-05
2.05761e-05
0.000140844
6.24986e-06
0.000110517
0.000215109
8.09425e-05
2.19929e-05
0.000157078
0.000225364
0.000125537
0.00018625
9.43227e-05
9.62602e-05
1.56266e-05
0.000224201
0.000181948
0.000187207
0.000167973
8.92272e-05
7.75131e-05
1.01138e-05
0.000171437
0.000115762
0.00016136
0.000120137
6.28364e-05
5.03146e-05
7.02242e-06
0.000107811
7.24696e-05
0.000113333
7.81032e-05
3.94479e-05
3.16988e-05
3.64272e-06
6.78062e-05
4.82693e-05
7.29883e-05
4.84896e-05
2.61018e-05
2.27795e-05
1.80477e-06
4.55184e-05
3.21697e-05
4.48631e-05
2.89462e-05
2.08916e-05
1.97129e-05
1.11251e-07
2.91086e-05
1.01885e-06
2.58456e-05
1.28188e-06
1.75659e-05
3.02621e-05
0.000175987
6.36203e-05
0.000902665
0.00026871
0.000199954
0.0132601
0.000678097
0.00028525
0.00102823
0.00131605
0.000229455
0.000230376
0.000566359
0.000526565
0.000222666
0.00124608
0.000812737
0.000196567
0.000162672
0.000406292
0.000316766
0.000136886
0.000728962
0.000395688
0.000120759
9.23289e-05
0.000219113
0.000159948
8.38835e-05
0.000354301
0.000198609
6.67994e-05
5.15882e-05
0.000108439
7.99111e-05
5.63335e-05
0.000182277
0.000128976
4.05507e-05
3.59296e-05
5.89792e-05
5.18207e-05
3.95497e-05
0.000124729
0.000126988
3.57418e-05
3.81634e-05
5.40883e-05
6.43722e-05
1.60239e-06
0.000127713
1.06102e-05
4.44568e-05
4.1466e-05
9.95229e-05
0.000680537
0.00121001
0.000272864
0.00393741
0.0351307
0.00240687
0.112372
0.00456679
0.00164951
0.00413683
0.00393569
0.00173737
0.00131309
0.00273321
0.00202464
0.000956262
0.00361202
0.00208254
0.000883656
0.000598247
0.00129538
0.000895192
0.000450579
0.00185679
0.0009114
0.000392793
0.000267596
0.000562111
0.000379793
0.000219463
0.000809843
0.000387325
0.000174271
0.000120924
0.000238259
0.000161532
0.000140284
0.000350699
0.000219327
8.52262e-05
7.19463e-05
0.000108996
8.90328e-05
0.000144027
0.000213843
0.000254783
7.8572e-05
0.000104186
9.58549e-05
0.000132309
1.25591e-05
0.000270286
2.58852e-05
0.000187431
0.00197833
0.000273358
0.00768833
0.00437787
0.000460494
0.00620679
0.11458
0.0057619
0.118078
0.0062821
0.00436561
0.00656475
0.00620449
0.00364304
0.00274899
0.00411412
0.00313847
0.00228779
0.00570287
0.00321485
0.00184772
0.00125063
0.0021199
0.00146093
0.000988025
0.00290028
0.00136122
0.000794498
0.00051553
0.00091718
0.000599774
0.00041178
0.00120781
0.000532859
0.000319255
0.000208335
0.000364919
0.000236159
0.000228831
0.000478833
0.000272159
0.000136787
0.000106103
0.00015158
0.000115739
0.000267139
0.000263252
0.000314806
0.000113336
0.000159157
0.000120863
0.000169104
2.72103e-05
0.00033635
3.16376e-05
0.000325503
0.00805388
0.000349724
0.00900816
0.00632008
0.000360858
0.00635129
0.118669
0.00644066
0.118963
0.00643313
0.00634984
0.00675752
0.00642121
0.00427694
0.00328496
0.00427869
0.00329097
0.00329068
0.00590011
0.003283
0.00226668
0.00156922
0.00226896
0.00156861
0.00139131
0.00295537
0.00135987
0.0010011
0.000652148
0.000998093
0.0006482
0.000541418
0.0012007
0.000519383
0.000397537
0.000254596
0.000393779
0.000251087
0.000273699
0.00046406
0.000257418
0.000161632
0.000120896
0.000158774
0.000118164
0.000315352
0.000248782
0.000301155
0.000124485
0.000173738
0.000121946
0.000171504
3.16663e-05
0.00032349
2.87893e-05
0.000357162
0.00902871
0.000355065
0.00901553
0.00630157
0.000425614
0.00487893
0.118825
0.00629985
0.115575
0.00583412
0.00631369
0.00512064
0.00462022
0.00413939
0.00315873
0.0037246
0.00280598
0.00320766
0.00421601
0.00225253
0.00212569
0.0014576
0.00187129
0.00125271
0.00131928
0.00197901
0.000894025
0.000905894
0.000587053
0.000779964
0.000497022
0.000502049
0.000783318
0.000345709
0.000351902
0.000224981
0.000300159
0.000191199
0.000249205
0.000308283
0.000183542
0.000141943
0.000107723
0.000122149
9.34898e-05
0.000293676
0.000178358
0.000222563
0.000113457
0.000161625
0.000101118
0.000146471
2.77447e-05
0.000240481
2.06443e-05
0.000342708
0.00895522
0.000312137
0.00794539
0.00448719
0.000150994
0.00199665
0.113742
0.00475315
0.0409389
0.00276231
0.00421845
0.00213772
0.00188967
0.00287804
0.00213249
0.00197401
0.00145921
0.00204361
0.00172355
0.00087569
0.0013399
0.000909632
0.00094226
0.000619008
0.000810152
0.00076413
0.00034525
0.00054664
0.000358579
0.000380133
0.000245189
0.000315206
0.00030179
0.000146523
0.000213535
0.000139889
0.000149565
9.83729e-05
0.000169419
0.000131995
8.73762e-05
9.02069e-05
7.24099e-05
6.57762e-05
5.38436e-05
0.000204678
8.44737e-05
9.36765e-05
7.86816e-05
0.000112494
5.91168e-05
8.12618e-05
1.88561e-05
9.70877e-05
6.39238e-06
0.000250906
0.00753386
0.000155907
0.00172406
0.00161625
3.76775e-06
9.72956e-05
0.018854
0.00104673
9.50188e-05
0.00131515
0.00155596
0.000101694
8.67555e-05
0.000900396
0.000745509
0.00140488
0.00126578
0.000728886
8.07597e-05
4.20688e-05
0.0005228
0.000352561
0.0011728
0.000631117
0.000291617
3.7888e-05
1.77125e-05
0.000225593
0.000146219
0.000562606
0.000275455
0.000126035
1.58504e-05
7.5444e-06
9.32704e-05
6.2375e-05
0.000244494
0.00012781
7.56154e-05
6.81627e-06
3.81504e-06
4.37956e-05
3.60142e-05
0.000115312
7.60289e-05
7.77023e-05
3.56282e-06
2.74875e-06
3.66168e-05
4.57603e-05
7.24545e-05
7.50489e-05
4.90713e-06
2.62983e-06
2.21695e-07
6.83643e-05
0.000485191
7.59432e-05
4.72889e-06
0.000118827
0.000232147
0.000130367
3.17613e-06
0.000125795
0.000251492
0.000155873
0.000201842
0.000160741
0.000150809
0.00014963
0.000244206
0.000176511
0.00016532
0.00018119
0.000126512
0.00010588
0.000246175
0.000222736
0.000138093
0.000115609
0.000129539
8.07465e-05
6.33905e-05
0.000214488
0.000160914
8.75705e-05
6.87786e-05
8.44217e-05
4.83343e-05
3.85136e-05
0.00015219
0.00010566
5.2227e-05
4.17609e-05
5.2352e-05
3.16637e-05
2.82763e-05
9.89748e-05
6.66723e-05
3.44897e-05
3.11252e-05
3.1797e-05
2.75671e-05
2.87278e-05
6.20136e-05
4.31726e-05
3.10091e-05
3.29374e-05
1.42283e-06
2.71826e-05
3.57383e-05
3.90891e-05
1.88143e-06
3.38915e-05
5.68181e-05
0.000439307
0.0316494
0.00186261
0.000344204
0.000620911
0.0912412
0.00302037
4.92297e-05
0.000203969
0.00215168
0.000102356
8.23827e-05
0.000292637
0.00752755
0.00773548
0.121812
0.0118967
0.12878
0.011559
0.010043
0.0117771
0.00147831
0.00064117
0.00398954
0.000627276
0.00376189
0.000906258
0.00337819
0.0128454
0.128551
0.0131265
0.010028
0.0108449
0.0100092
0.0107147
0.00407682
0.000788312
0.00451963
0.00103364
0.00339918
0.00108833
0.00354266
0.0132307
0.13084
0.0132465
0.0100094
0.0107302
0.01001
0.0107451
0.00452642
0.000797465
0.00451413
0.00110191
0.00353924
0.00109986
0.00354204
0.0131288
0.124276
0.0128538
0.01001
0.0107533
0.0100288
0.0108862
0.00450086
0.00073056
0.00401861
0.00108485
0.00353525
0.00102095
0.00339329
0.0119243
0.121262
0.00800421
0.010043
0.0118032
0.128645
0.0116497
0.00392228
0.000387385
0.00128969
0.000881278
0.00336046
0.000572926
0.00350633
0.00241403
0.000111262
0.00152323
0.100491
0.00364797
0.000115912
0.00211168
0.00121495
0.00162639
0.00143103
0.00202683
0.00143119
0.00221165
0.00182808
0.00048835
0.00132162
0.000697837
0.000864337
0.000545884
0.00167248
0.000868883
0.000190198
0.000621768
0.000302824
0.000327851
0.000208098
0.000772013
0.000382658
7.91826e-05
0.000269004
0.000140734
0.000128604
8.64211e-05
0.000339797
0.000180692
4.80419e-05
0.000127049
8.48383e-05
6.07316e-05
5.39809e-05
0.000163174
0.000114186
7.81036e-05
8.09521e-05
8.8152e-05
6.38516e-05
9.74634e-05
0.000110559
0.000144153
0.00173321
9.06973e-05
5.84236e-06
0.000218372
0.00671729
0.000155068
1.18074e-05
0.000125751
0.000251565
0.000155854
6.6262e-06
0.000118728
0.000232422
0.000130298
0.000244099
0.000176479
0.000165285
0.000135431
0.000201687
0.00016066
0.000150735
0.00022263
0.000138063
0.000115578
0.000202902
0.000181063
0.00012644
0.000105818
0.000160816
8.75481e-05
6.87569e-05
0.000174091
0.00012946
8.06904e-05
6.33453e-05
0.000105589
5.2211e-05
4.17454e-05
0.000122326
8.43859e-05
4.82924e-05
3.84785e-05
6.66223e-05
3.44753e-05
3.11073e-05
7.8958e-05
5.23512e-05
3.16253e-05
2.82381e-05
4.31366e-05
3.09891e-05
3.29021e-05
4.83889e-05
3.18076e-05
2.75252e-05
2.86926e-05
1.88064e-06
3.3823e-05
5.67548e-05
2.854e-05
1.42446e-06
2.71717e-05
3.57145e-05
0.000620853
0.0912386
0.00302019
0.000291826
0.000439165
0.0316482
0.00186226
8.22954e-05
0.000292154
0.00751474
7.77215e-05
4.91978e-05
0.000203587
0.00214797
0.0115588
0.010043
0.0117773
0.121799
0.00773489
0.121827
0.0118964
0.00375643
0.000905344
0.0033729
0.000431355
0.00147492
0.000639427
0.00398015
0.0108455
0.0100092
0.0107152
0.122
0.0128452
0.128561
0.013126
0.00339442
0.00108746
0.00353762
0.000742099
0.00406745
0.000786355
0.00451058
0.0107308
0.01001
0.0107457
0.129061
0.0132299
0.13085
0.0132458
0.0035347
0.00109903
0.00353701
0.000798201
0.00451746
0.000795498
0.00450508
0.0107539
0.0100288
0.0108866
0.130388
0.0131282
0.124286
0.0128536
0.0035307
0.00102017
0.00338801
0.000782229
0.00449185
0.000728593
0.00400927
0.0118035
0.128642
0.0116497
0.124251
0.0119242
0.121249
0.00800415
0.00335566
0.000572528
0.00350104
0.00061601
0.00391307
0.000386178
0.00128665
0.00364805
0.000117017
0.00211171
0.0391598
0.00241396
0.000111351
0.00152309
0.00143112
0.00221161
0.0018279
0.00165253
0.00121477
0.00162615
0.00143043
0.000545818
0.00167231
0.000868723
0.000765333
0.000488188
0.001321
0.000697282
0.000208059
0.000771876
0.000382553
0.000298452
0.000190107
0.000621219
0.000302633
8.63976e-05
0.000339705
0.000180607
0.00011815
7.91374e-05
0.000268813
0.000140644
5.39501e-05
0.000163105
0.0001141
5.5106e-05
4.80085e-05
0.000126971
8.48223e-05
9.73765e-05
0.000110482
0.000143994
5.46367e-05
7.79687e-05
8.09348e-05
8.81363e-05
0.0067059
0.000154928
1.17821e-05
0.000148405
0.00172992
9.06524e-05
5.84503e-06
0.000110299
0.000215328
8.07964e-05
1.62035e-06
1.5396e-05
2.08736e-05
0.000140442
0.000185924
9.42073e-05
9.61552e-05
1.49184e-05
2.37281e-05
0.000156728
0.000225165
0.000167692
8.91296e-05
7.74243e-05
2.04031e-05
1.77691e-05
0.000224022
0.000181865
0.000119928
6.27583e-05
5.02483e-05
1.69899e-05
1.22866e-05
0.000171368
0.000115759
7.79748e-05
3.93908e-05
3.16493e-05
9.8864e-06
6.57002e-06
0.000107813
7.24975e-05
4.84171e-05
2.60527e-05
2.27333e-05
6.16588e-06
3.8013e-06
6.78367e-05
4.83086e-05
2.89084e-05
2.08395e-05
1.96687e-05
3.06412e-06
1.69571e-06
4.5565e-05
3.2219e-05
1.28004e-06
1.75176e-05
3.02034e-05
1.5615e-06
1.20108e-07
2.91662e-05
1.02125e-06
0.000199755
0.0132595
0.000677754
2.21483e-05
0.000175561
6.38072e-05
0.000901966
0.000230216
0.000566081
0.000526309
0.000197753
0.00028501
0.00102756
0.00131521
0.000162539
0.000406047
0.000316559
0.000282505
0.000222542
0.00124531
0.000812097
9.22346e-05
0.000218933
0.00015981
0.000208793
0.000136865
0.000728401
0.000395375
5.15243e-05
0.000108327
7.98263e-05
0.000127025
8.39066e-05
0.000354052
0.000198554
3.58699e-05
5.89028e-05
5.17472e-05
7.85181e-05
5.63774e-05
0.000182257
0.000129046
3.80813e-05
5.3976e-05
6.42096e-05
5.33826e-05
3.96038e-05
0.000124832
0.000127085
4.13898e-05
9.90947e-05
0.000677437
3.64162e-05
1.60636e-06
0.000127828
1.05997e-05
0.00240616
0.112371
0.00456567
7.34177e-05
0.00120925
0.000289902
0.00393555
0.00131264
0.00273242
0.002024
0.00137451
0.00164846
0.00413491
0.00393362
0.000597936
0.00129485
0.000894776
0.00154339
0.000955493
0.00361009
0.00208106
0.000267393
0.000561765
0.000379538
0.000854829
0.000450193
0.00185539
0.000910541
0.000120806
0.00023806
0.00016139
0.000402392
0.000219376
0.000809064
0.000387007
7.18483e-05
0.00010888
8.89252e-05
0.000200919
0.000140347
0.000350453
0.000219346
0.000103908
9.56785e-05
0.000131947
0.000136219
0.000144133
0.000213912
0.000254871
0.00197186
0.000272029
0.00766492
0.000146934
1.25391e-05
0.000270365
2.58208e-05
0.00576042
0.118069
0.0062797
0.000331604
0.0043758
0.0004614
0.00620132
0.00274818
0.00411261
0.00313747
0.00460183
0.00436338
0.00655955
0.00620101
0.00125011
0.00211914
0.00146033
0.00400886
0.00228619
0.00569971
0.00321281
0.000515214
0.000916734
0.000599438
0.00204594
0.000987122
0.00289879
0.00135996
0.00020816
0.000364658
0.000235972
0.000878119
0.000411469
0.00120664
0.000532382
0.000105976
0.000151438
0.000115615
0.000371739
0.000228833
0.000478426
0.000272108
0.000158753
0.000120679
0.000168698
0.000222954
0.000267255
0.000263244
0.000314821
0.00803103
0.000348208
0.00898491
0.000284569
2.71308e-05
0.00033631
3.15481e-05
0.00643715
0.118972
0.00642979
0.00045382
0.00631339
0.000366602
0.00634627
0.00328379
0.00427694
0.00328988
0.00669106
0.00634605
0.00675263
0.00641761
0.00156858
0.00226812
0.00156797
0.00583643
0.00328863
0.00589675
0.00328062
0.0006518
0.000997626
0.000647845
0.00297003
0.00139005
0.00295311
0.0013586
0.000254394
0.000393516
0.000250885
0.00123365
0.000540951
0.00119949
0.000518846
0.000120764
0.000158627
0.000118046
0.000485523
0.000273667
0.000463523
0.000257366
0.000173352
0.000121782
0.000171115
0.00026445
0.000315414
0.000248794
0.000301145
0.00900656
0.000353568
0.00899241
0.000337489
3.15622e-05
0.000323405
2.86991e-05
0.00629815
0.115577
0.00583318
0.000406012
0.00629826
0.000426699
0.00487814
0.0031579
0.00372389
0.00280533
0.00669054
0.00631029
0.00511952
0.00461774
0.00145702
0.00187068
0.00125221
0.00578994
0.00320537
0.00421363
0.0022507
0.000586712
0.000779567
0.000496702
0.00287994
0.00131801
0.00197731
0.000893038
0.000224793
0.000299929
0.000191028
0.00116104
0.000501554
0.000782413
0.000345367
0.000107604
0.000122029
9.33952e-05
0.000447958
0.000249182
0.000307998
0.000183515
0.000161262
0.000100979
0.000146097
0.00024118
0.000293735
0.000178357
0.000222509
0.00893283
0.000310723
0.00792216
0.000315837
2.76488e-05
0.00024034
2.05959e-05
0.00475257
0.0409374
0.00276198
0.000405284
0.00448658
0.000160003
0.00199647
0.00213197
0.00197366
0.00145884
0.00469078
0.00421611
0.00213733
0.00188838
0.00090922
0.000941897
0.000618693
0.00383812
0.00204188
0.00172232
0.000874855
0.00035832
0.000379882
0.000244991
0.00178361
0.000809261
0.000763398
0.000344912
0.000139756
0.000149429
9.82753e-05
0.000705333
0.000314913
0.000301519
0.000146448
7.23296e-05
6.57126e-05
5.37917e-05
0.00028076
0.000169413
0.000131944
8.73972e-05
0.000112214
5.90454e-05
8.10647e-05
0.000164767
0.000204677
8.45038e-05
9.36823e-05
0.00751204
0.000155214
0.00171827
0.000220847
1.88105e-05
9.70727e-05
6.3798e-06
0.00104653
9.50764e-05
0.00131477
0.000131322
0.00161598
3.81813e-06
9.7181e-05
0.000745209
0.0014044
0.0012649
0.00173127
0.00155484
0.000101555
8.66088e-05
0.000352319
0.00117193
0.000630361
0.00142342
0.000728183
8.06082e-05
4.19666e-05
0.000146083
0.000561925
0.000275103
0.000636274
0.000291359
3.77835e-05
1.76798e-05
6.2307e-05
0.000244184
0.000127619
0.00025482
0.000125981
1.58159e-05
7.53054e-06
3.59708e-05
0.000115158
7.59073e-05
0.000113592
7.5642e-05
6.80102e-06
3.80679e-06
4.56451e-05
7.23449e-05
7.48809e-05
7.29778e-05
7.77256e-05
3.5527e-06
2.74435e-06
0.000482895
7.5778e-05
4.70862e-06
7.92004e-05
4.9004e-06
2.62482e-06
2.01676e-07
2.50295e-05
1.07251e-06
7.88902e-06
3.82755e-06
2.18715e-05
4.6718e-05
2.0793e-05
4.12106e-05
1.99858e-05
6.44719e-05
7.15242e-05
9.25737e-05
3.96064e-05
7.92874e-05
4.04519e-05
2.12944e-05
8.69979e-05
0.000107281
0.000105908
4.18471e-05
8.41131e-05
3.09648e-05
1.51585e-05
7.18465e-05
9.2484e-05
8.23035e-05
3.36434e-05
6.37332e-05
2.12514e-05
9.0395e-06
4.99143e-05
6.44159e-05
5.50062e-05
2.34433e-05
4.30155e-05
1.44556e-05
4.91016e-06
3.25351e-05
4.09573e-05
3.44191e-05
1.58721e-05
2.77597e-05
1.00634e-05
2.46473e-06
2.05674e-05
2.49508e-05
2.08853e-05
1.1009e-05
1.73659e-05
5.23101e-06
8.95514e-07
1.09714e-05
1.3197e-05
7.9072e-06
6.72394e-06
6.42235e-06
9.87989e-05
7.91416e-05
3.69761e-05
0.000148211
6.65197e-05
0.000242895
0.000136007
0.000196617
0.000256384
0.000380036
0.000121205
0.000131073
0.000182812
0.000498977
0.000186166
0.000267535
0.000530026
0.000135662
0.000128752
0.000197187
0.000493592
0.000117995
0.000176872
0.000362051
9.67329e-05
8.61109e-05
0.00013411
0.000297851
6.56413e-05
0.000106375
0.000200076
5.74886e-05
5.06473e-05
7.54583e-05
0.000162598
4.00023e-05
6.78766e-05
0.000115557
3.53273e-05
3.22064e-05
4.41121e-05
9.93407e-05
3.32021e-05
4.78684e-05
8.0445e-05
2.67766e-05
2.58061e-05
3.37753e-05
7.49884e-05
3.27656e-05
2.49105e-05
6.56624e-05
2.41161e-05
2.16206e-05
3.46435e-05
5.01766e-05
0.00109739
0.000478745
0.000136115
0.00106543
0.000643927
0.00278125
0.00107869
0.00113276
0.00174061
0.00247424
0.000818491
0.000817024
0.00116295
0.00284718
0.000717934
0.00130193
0.00233174
0.000640413
0.000560393
0.000822374
0.00190179
0.000358142
0.000654177
0.00122354
0.00034333
0.000290818
0.000423463
0.000920485
0.000165298
0.000307045
0.000555028
0.000164938
0.000138378
0.000198377
0.000412349
8.23725e-05
0.000165568
0.00026104
8.16981e-05
7.18229e-05
9.46148e-05
0.000208965
7.09448e-05
0.000134213
0.000170111
6.06243e-05
6.2382e-05
6.86119e-05
0.000170446
0.000117993
0.000131235
0.000202551
9.01454e-05
9.59202e-05
0.000107856
0.000192207
0.00289912
0.00255418
0.000451065
0.00603124
0.00259735
0.00679851
0.00311064
0.00241802
0.00499217
0.00566768
0.00227744
0.00214308
0.00256944
0.0060818
0.00146046
0.00320076
0.00490432
0.00151858
0.00129704
0.00170212
0.00388593
0.000687415
0.0015056
0.00250071
0.000747406
0.000619584
0.00082814
0.00181986
0.000292603
0.000627056
0.00104862
0.0003266
0.000267001
0.000359487
0.000735501
0.000127305
0.000284967
0.00042838
0.000140663
0.000118703
0.00015189
0.000322425
9.98522e-05
0.00022407
0.000246297
9.14106e-05
9.49823e-05
9.6324e-05
0.000246422
0.000189008
0.000283048
0.000315983
0.000158985
0.000178958
0.000166858
0.000315812
0.0032616
0.00341821
0.000336463
0.00720591
0.00326985
0.00678554
0.00323616
0.00291224
0.00721305
0.00682386
0.00302731
0.00286537
0.00306999
0.00738602
0.00179583
0.00460561
0.00602238
0.00206035
0.00176143
0.0020953
0.00474627
0.000848291
0.00215365
0.00306225
0.00100419
0.000833348
0.00102239
0.00221852
0.000354593
0.000854279
0.00126805
0.000432524
0.000349848
0.000438871
0.000875532
0.000146508
0.000359029
0.000495657
0.000176288
0.000145745
0.000177591
0.000363388
0.00010725
0.000262004
0.000265159
0.000104792
0.000107307
0.000104741
0.000261776
0.000205545
0.00033925
0.000338288
0.000180561
0.000205153
0.000180267
0.000340676
0.00316817
0.00326547
0.000417238
0.00689184
0.0032195
0.00703935
0.00329367
0.00269407
0.00721744
0.00626275
0.0029773
0.00281279
0.00286168
0.00669154
0.00160655
0.00454712
0.00528311
0.00198569
0.00169566
0.00189391
0.00413473
0.000736149
0.00206891
0.00257316
0.000950768
0.00078365
0.000895601
0.00183631
0.000299473
0.00079603
0.00102319
0.000399605
0.000321093
0.000372891
0.000701589
0.000123168
0.000327579
0.000396169
0.000159808
0.000131677
0.000148996
0.000292102
9.41144e-05
0.0002399
0.000219536
9.55743e-05
9.88569e-05
9.03631e-05
0.000219967
0.000188551
0.00031958
0.00029237
0.000171433
0.000195555
0.000164894
0.000295681
0.00204761
0.0026624
0.000307734
0.00607419
0.00247385
0.00473178
0.00195091
0.00165123
0.00498444
0.0036101
0.00209185
0.00194849
0.00177183
0.00380937
0.000926083
0.00299421
0.00284126
0.00130294
0.00110866
0.00110174
0.00219955
0.000411845
0.0012823
0.00128048
0.000605012
0.000495227
0.000505311
0.000915404
0.00016735
0.000493728
0.000503656
0.000248955
0.000200214
0.000207657
0.000356621
7.32586e-05
0.000212448
0.000208555
0.000102043
8.55592e-05
8.66608e-05
0.000161436
6.11836e-05
0.000166479
0.000128859
6.7114e-05
7.00163e-05
5.84317e-05
0.00013034
0.000122136
0.00022333
0.00016867
0.000124923
0.000141941
0.000108254
0.000166686
0.000418266
0.000820486
6.14494e-05
0.00164284
0.000655512
0.000773536
0.000420496
0.000497398
0.00187148
0.000904555
0.000728877
0.000707597
0.000512238
0.000961341
0.000308277
0.00111029
0.000741622
0.000499615
0.00042791
0.000362055
0.000580529
0.000139539
0.000459368
0.000339357
0.000231666
0.000190878
0.000170915
0.000247889
6.02928e-05
0.000186445
0.00014264
9.74546e-05
8.033e-05
7.34693e-05
0.000106858
3.01875e-05
9.15493e-05
6.76957e-05
4.4365e-05
3.88993e-05
3.46018e-05
5.54562e-05
2.46659e-05
7.2018e-05
4.37703e-05
3.17189e-05
3.21874e-05
2.44578e-05
4.22989e-05
3.03048e-05
6.90345e-05
4.18556e-05
4.42248e-05
4.551e-05
3.07979e-05
3.33876e-05
5.10878e-05
3.76532e-05
7.85676e-05
7.2511e-06
4.87166e-05
3.31838e-05
7.90868e-05
9.45377e-05
0.000174945
8.39126e-05
0.000150375
8.43482e-05
0.000197564
9.3797e-05
8.13122e-05
0.000198759
7.83999e-05
0.000232694
7.34661e-05
0.000227817
8.68395e-05
5.76656e-05
0.000155029
5.82724e-05
0.000199826
5.25621e-05
0.000177937
6.39528e-05
3.84527e-05
0.000105276
3.9128e-05
0.000141016
3.50706e-05
0.000121483
4.27295e-05
2.64211e-05
6.73242e-05
2.63513e-05
9.13745e-05
2.40376e-05
7.80347e-05
2.88304e-05
2.03888e-05
4.15125e-05
1.93746e-05
5.65413e-05
1.82784e-05
4.92381e-05
2.14455e-05
1.37673e-05
1.81842e-05
1.43881e-05
3.48379e-05
1.19916e-05
2.26217e-05
1.63879e-05
0.000580128
0.000183875
0.000706268
0.000336811
0.000424446
0.000223381
0.000964632
0.0210969
0.0123488
0.1178
0.128439
0.0177138
0.0176583
0.0126408
0.0195589
0.0238919
0.125446
0.0116081
0.0244457
0.0193374
0.0117402
0.020109
0.0249975
0.13082
0.0118724
0.0250857
0.0200165
0.011927
0.0198687
0.024954
0.128198
0.0119006
0.024773
0.0200072
0.0118147
0.0198525
0.0230907
0.121
0.0116626
0.021384
0.0194185
0.0121261
0.00289647
0.00565294
0.00333622
0.082428
0.00207401
0.00870544
0.00576635
5.0534e-05
1.72667e-05
5.12471e-05
6.96576e-06
4.87254e-05
2.96552e-05
7.58823e-05
0.000100931
0.000203311
0.000101965
0.000151028
0.00010357
0.000200807
9.98664e-05
8.61912e-05
0.00024236
9.43522e-05
0.000238783
8.82011e-05
0.000234098
9.2117e-05
6.09316e-05
0.00019159
6.91849e-05
0.000206022
6.24094e-05
0.000183673
6.75704e-05
4.07084e-05
0.00013128
4.6296e-05
0.000145694
4.1707e-05
0.00012556
4.51734e-05
2.80841e-05
8.46926e-05
3.13393e-05
9.45265e-05
2.88116e-05
8.07713e-05
3.05453e-05
2.18992e-05
5.43996e-05
2.36443e-05
5.88345e-05
2.25847e-05
5.13743e-05
2.29363e-05
1.54186e-05
2.55834e-05
1.89747e-05
3.66127e-05
1.61254e-05
2.38363e-05
1.81753e-05
0.000744599
0.000282332
0.00117536
0.000344534
0.00081719
0.000264462
0.00105708
0.0203288
0.0220722
0.0118182
0.127702
0.0199935
0.0207838
0.0122366
0.0126995
0.0104939
0.010009
0.0107843
0.0103577
0.0127789
0.0108052
0.0128328
0.01036
0.0100103
0.0108617
0.0103704
0.0128017
0.0108883
0.0127685
0.0103647
0.0100096
0.0108753
0.0103579
0.0128056
0.0108348
0.0153272
0.0111756
0.0108654
0.0108154
0.0135639
0.0133405
0.0115328
0.003756
0.0122949
0.00677839
0.0913148
0.00412586
0.0111309
0.00634473
3.50653e-05
3.71815e-05
7.56415e-05
4.48418e-06
4.28396e-05
2.79667e-05
5.7579e-05
5.43495e-05
0.000161476
6.70612e-05
8.83959e-05
6.7653e-05
0.000114626
5.37062e-05
5.08974e-05
0.00018399
6.52858e-05
0.000132352
6.15513e-05
0.000130702
5.37003e-05
3.81537e-05
0.000143737
5.0078e-05
0.000114382
4.53152e-05
0.000101936
4.20138e-05
2.59217e-05
9.73188e-05
3.40259e-05
7.99909e-05
3.05496e-05
6.854e-05
2.88692e-05
1.77477e-05
6.20455e-05
2.30146e-05
5.12696e-05
2.09841e-05
4.32897e-05
1.95303e-05
1.27747e-05
3.82652e-05
1.66917e-05
3.13954e-05
1.55029e-05
2.63617e-05
1.38687e-05
7.45397e-06
1.62684e-05
1.16046e-05
1.69787e-05
9.52405e-06
1.0331e-05
9.19466e-06
0.000158213
0.000130519
0.000571684
0.000182879
0.000240966
9.47754e-05
0.000322576
0.00291972
0.00525622
0.085733
0.00208639
0.00894279
0.00176016
0.00596063
0.00640381
0.0156286
0.116623
0.0111868
0.0164329
0.00599309
0.0121773
0.00696702
0.017193
0.118682
0.0128836
0.0172583
0.00693739
0.0124648
0.00677724
0.0171254
0.118417
0.0125433
0.0169104
0.00688375
0.0125941
0.00470048
0.0145875
0.100347
0.0111101
0.012547
0.00550948
0.00885027
0.000688853
0.00253056
0.0024314
0.00267211
0.00113502
0.00118866
0.00107293
3.26103e-05
3.52601e-06
5.81208e-05
6.26938e-05
3.19498e-05
3.70645e-05
3.15597e-05
3.51624e-05
1.0747e-05
6.50667e-05
0.000124925
6.64835e-05
4.7664e-05
3.16058e-05
4.34754e-05
7.61264e-05
8.44474e-05
6.8429e-05
4.94596e-05
5.90356e-05
4.43898e-05
3.51408e-05
4.49612e-06
3.70944e-05
7.53726e-05
2.8027e-05
5.72159e-05
4.28643e-05
4.55993e-05
7.77025e-05
5.51484e-05
6.30424e-05
4.03329e-05
5.04836e-05
5.64176e-05
4.76029e-05
0.000152227
0.000107986
8.12922e-05
7.93723e-05
6.59512e-05
5.90298e-05
4.22433e-05
2.08379e-05
8.72783e-05
0.000106567
9.70957e-05
4.23525e-05
8.21586e-05
5.74174e-05
8.40433e-05
0.000199813
7.78591e-05
5.46465e-05
8.27979e-05
0.000103214
6.00326e-05
0.000113838
0.000208738
8.78515e-05
6.0061e-05
8.75291e-05
0.000107032
5.44355e-05
8.8563e-05
0.000161764
6.71558e-05
0.000114808
5.37947e-05
6.77509e-05
5.56459e-05
0.000131788
0.000169684
6.66064e-05
0.000120423
5.43885e-05
6.86193e-05
3.85786e-05
2.09278e-05
7.49312e-05
9.61222e-05
0.000103635
3.61622e-05
8.17762e-05
5.72088e-05
0.000113298
0.000214317
8.71796e-05
5.97018e-05
8.35399e-05
0.000108992
5.44754e-05
9.59937e-05
0.000205837
7.25152e-05
5.03793e-05
7.87883e-05
0.000105663
5.09662e-05
0.000132544
0.000184264
6.53585e-05
0.000130903
5.377e-05
6.16296e-05
4.88263e-05
0.000119089
0.000180195
5.39685e-05
0.000128163
4.50463e-05
5.87286e-05
2.83518e-05
1.4546e-05
5.27892e-05
6.81851e-05
7.82648e-05
2.57914e-05
6.05311e-05
4.21783e-05
9.16699e-05
0.000146967
6.57546e-05
4.64601e-05
5.93096e-05
8.06258e-05
3.83053e-05
6.62208e-05
0.000137438
4.71868e-05
3.43739e-05
5.29589e-05
7.63682e-05
3.82039e-05
0.000114508
0.000143946
5.01334e-05
0.000102067
4.2064e-05
4.53747e-05
3.52014e-05
8.48013e-05
0.000136722
3.74492e-05
9.70677e-05
3.16644e-05
4.16919e-05
1.92622e-05
8.54793e-06
3.46472e-05
4.3752e-05
5.16027e-05
1.74542e-05
4.04572e-05
2.77895e-05
6.24352e-05
9.11352e-05
4.16432e-05
3.09456e-05
3.71984e-05
5.36376e-05
2.50853e-05
4.32258e-05
8.51099e-05
2.98308e-05
2.26109e-05
3.30975e-05
5.0421e-05
2.59549e-05
8.00611e-05
9.74497e-05
3.40639e-05
6.86162e-05
2.89028e-05
3.0591e-05
2.36887e-05
5.48153e-05
9.12907e-05
2.5174e-05
6.43934e-05
2.13391e-05
2.78661e-05
1.31856e-05
4.60506e-06
2.205e-05
2.68018e-05
3.20296e-05
1.20355e-05
2.59817e-05
1.87394e-05
4.05863e-05
5.86518e-05
2.67828e-05
2.05444e-05
2.45495e-05
3.47906e-05
1.72479e-05
2.78944e-05
5.52548e-05
2.1111e-05
1.58975e-05
2.25566e-05
3.26234e-05
1.77722e-05
5.1289e-05
6.21024e-05
2.30416e-05
4.33051e-05
1.95539e-05
2.10145e-05
1.63939e-05
3.37937e-05
5.78101e-05
1.7903e-05
4.03004e-05
1.50033e-05
1.94549e-05
9.0932e-06
2.45281e-06
1.24936e-05
1.50115e-05
1.92769e-05
8.00499e-06
1.60631e-05
1.37214e-05
2.60527e-05