/*--------------------------------*- C++ -*----------------------------------*\
| =========                 |                                                 |
| \\      /  F ield         | OpenFOAM: The Open Source CFD Toolbox           |
|  \\    /   O peration     | Version:  2.4.0                                 |
|   \\  /    A nd           | Web:      www.OpenFOAM.org                      |
|    \\/     M anipulation  |                                                 |
\*---------------------------------------------------------------------------*/
FoamFile
{
    version     2.0;
    format      ascii;
    class       volScalarField;
    location    "70";
    object      nut;
}
// * * * * * * * * * * * * * * * * * * * * * * * * * * * * * * * * * * * * * //

dimensions      [0 2 -1 0 0 0 0];

internalField   nonuniform List<scalar> 
43096
(
4.30349e-05
0.000106537
0.00011905
0.000109622
9.39356e-05
9.50532e-05
6.35557e-05
4.87072e-05
0.00012339
0.000365307
0.000411276
0.000371592
0.000313761
0.000266207
0.00023312
0.000204312
0.000178266
0.000697934
0.000724746
0.000594805
0.000462215
0.000365187
0.000318088
0.000323604
0.000374693
0.00104453
0.000996171
0.000795706
0.000599998
0.00044942
0.000375257
0.000402239
0.000328857
0.00118339
0.00112896
0.000901068
0.000672072
0.000491741
0.000397584
0.000425531
0.000385011
0.001183
0.00112586
0.000891687
0.000658741
0.00047863
0.000385369
0.000415875
0.000316833
0.00105101
0.000981735
0.000760111
0.000557614
0.00040889
0.00033847
0.000368616
0.000259884
0.000754313
0.000705869
0.000539411
0.00039654
0.000301332
0.000257591
0.00026202
7.97752e-05
0.000321345
0.000367198
0.000348334
0.000308785
0.000266492
0.000225706
0.000188324
0.000415007
0.0246527
0.0263998
0.0249668
0.0218637
0.0180885
0.0135066
0.00884609
0.00992041
0.0489559
0.0424818
0.0360833
0.0294141
0.0242524
0.0194911
0.0178465
0.0149104
0.0635055
0.0537585
0.0441287
0.0353682
0.028973
0.0240273
0.0259833
0.0141548
0.0661251
0.0571723
0.0468416
0.0370226
0.0300885
0.0249594
0.0279769
0.0140409
0.0640161
0.054258
0.0439326
0.0345657
0.0277615
0.0230028
0.0272108
0.0146638
0.0510006
0.0435449
0.034647
0.027059
0.0216535
0.0172775
0.022116
0.00222766
0.0312258
0.0297097
0.0243425
0.0189623
0.0151158
0.0115778
0.0104294
6.26731e-05
0.000331947
0.000391553
0.000373383
0.000331928
0.000287026
0.000244924
0.000208982
0.000438126
0.0246496
0.0263959
0.0249623
0.0218594
0.0180874
0.0135061
0.00997116
0.0142724
0.0489533
0.0424786
0.0360788
0.0294088
0.0242493
0.0194872
0.0223216
0.0899387
0.0635017
0.0537547
0.0441251
0.0353634
0.0289693
0.0240229
0.0351594
0.0899808
0.0661207
0.057168
0.0468378
0.0370179
0.0300848
0.0249558
0.037808
0.0899809
0.0640134
0.0542547
0.0439288
0.0345609
0.0277578
0.0229977
0.0369137
0.0899227
0.0509991
0.0435419
0.0346423
0.0270542
0.0216509
0.0172747
0.0300337
0.00312304
0.033983
0.031922
0.0262898
0.0206291
0.0163943
0.0126498
0.0121135
7.81987e-05
0.000313035
0.000357225
0.000339372
0.000300853
0.000259462
0.0002199
0.000182019
0.000404103
0.0155415
0.0176458
0.0166844
0.0145107
0.0123421
0.00972982
0.00692644
0.0021471
0.0301658
0.029903
0.0256967
0.0205597
0.0168977
0.0137723
0.0120981
0.00326037
0.0439379
0.0408298
0.0335638
0.0262183
0.0206054
0.0169947
0.0160254
0.00329844
0.0483201
0.0461617
0.0372999
0.0285414
0.0224195
0.0182155
0.0172463
0.0033006
0.0474905
0.0446272
0.0357718
0.0271055
0.0211498
0.0172843
0.0165665
0.00325231
0.0401654
0.0367334
0.0291162
0.0219111
0.0172546
0.0141427
0.0134384
0.00174206
0.025324
0.0244777
0.0197545
0.0151293
0.0119119
0.00947423
0.00783983
0.000102099
0.000117335
0.000325888
7.83095e-05
0.000300238
0.000375307
0.0088285
0.000119068
0.000337981
0.000381174
0.000313168
0.000356767
0.0111322
0.0124921
0.00013318
0.000380531
0.000354733
0.000357331
0.000344126
0.0132756
0.0132859
0.000115084
0.000347728
0.000304165
0.000339475
0.000306966
0.0129495
0.0123037
8.12821e-05
0.000296896
0.000259204
0.00030093
0.000265481
0.0115576
0.0107367
6.51555e-05
0.000253441
0.000225539
0.000259506
0.000225613
0.00980326
0.00879092
5.06898e-05
0.000221006
0.000196102
0.000219921
0.000189341
0.00763014
0.00660067
1.61903e-05
0.000189594
4.25171e-05
0.00018201
4.51263e-05
0.00518033
0.000191199
0.000351133
0.000169811
0.000606557
0.000404034
0.0129479
0.00154733
0.0185323
0.000412452
0.000633258
0.00068698
0.0155468
0.016905
0.0211262
0.0226311
0.000379554
0.000674538
0.00058464
0.0176501
0.0175002
0.0227632
0.0224116
0.000321785
0.000563778
0.000459448
0.0166876
0.0157491
0.0204419
0.0192758
0.000272209
0.000442696
0.000363788
0.0145122
0.0135281
0.0170946
0.0160163
0.000237393
0.000353213
0.000312706
0.0123413
0.0112454
0.0145338
0.0134624
0.000210007
0.000308788
0.000308516
0.00972726
0.00859814
0.0117561
0.01066
4.94272e-05
0.000308923
9.21716e-05
0.00692341
0.000212634
0.00930106
0.000558236
0.000669016
0.000348461
0.00099198
0.00214719
0.0284933
0.00323907
0.0366752
0.000740836
0.0010079
0.000989914
0.0301702
0.0317065
0.0381814
0.038617
0.000617301
0.000961928
0.000800201
0.029908
0.0288146
0.0356334
0.0334618
0.000479911
0.000770149
0.00060722
0.0257015
0.0232705
0.0295108
0.026724
0.000376286
0.000583741
0.000455585
0.0205629
0.0186192
0.0232023
0.0209807
0.000321622
0.000440456
0.00037371
0.0168985
0.0155404
0.018867
0.0173565
0.000321525
0.000369912
0.000387789
0.0137703
0.0129371
0.0156574
0.014871
9.74334e-05
0.000395225
0.000123783
0.0120944
0.000794763
0.0143967
0.00128014
0.0010277
0.000330793
0.00115434
0.00326035
0.0417534
0.00329344
0.0441363
0.00102476
0.00117546
0.00115199
0.0439441
0.0440924
0.0470631
0.0474005
0.000825689
0.00112
0.000924853
0.0408356
0.0377926
0.0442479
0.04064
0.000623845
0.000893664
0.000694205
0.0335698
0.029861
0.0358533
0.0318144
0.000465118
0.00066705
0.000507205
0.026224
0.0230658
0.0275966
0.0244579
0.000379076
0.000489233
0.000402041
0.0206081
0.0189237
0.0218867
0.0199274
0.000393918
0.000396843
0.000415769
0.016993
0.0164223
0.0179527
0.0174297
0.000125873
0.000424756
0.000132072
0.0160215
0.00130096
0.0169285
0.00135403
0.00116129
0.000381317
0.00116287
0.00329849
0.0449661
0.00330153
0.0449556
0.00116094
0.00118664
0.00116519
0.0483282
0.0489341
0.0484143
0.0490464
0.000932169
0.00113267
0.000931316
0.0461679
0.0421658
0.0462434
0.0422064
0.000699317
0.000899211
0.000694109
0.037306
0.0328722
0.0372809
0.0327979
0.000509946
0.000665905
0.000502811
0.0285476
0.0250833
0.0284355
0.0249134
0.000402832
0.000484105
0.000394588
0.0224229
0.0203064
0.0222085
0.020111
0.000416
0.00038931
0.000409449
0.0182147
0.0176651
0.0180091
0.0174566
0.000132089
0.000419004
0.000127713
0.0172425
0.00135519
0.0171314
0.00135455
0.00115989
0.000322091
0.0010653
0.00330037
0.0443198
0.00326982
0.0423274
0.00115865
0.00108202
0.00104413
0.0474953
0.0478677
0.0448804
0.0449933
0.000924079
0.00101268
0.000821367
0.0446326
0.0408416
0.0414977
0.0380976
0.000687126
0.000786607
0.000603321
0.0357779
0.0315702
0.0334316
0.0294167
0.000497096
0.000577261
0.000438485
0.0271109
0.0238879
0.0254448
0.0221658
0.000390302
0.000421798
0.000351616
0.0211532
0.0192231
0.0195583
0.0178555
0.000405943
0.000347493
0.000369538
0.0172828
0.0167928
0.015916
0.0154339
0.000126183
0.000378924
0.000114225
0.0165625
0.00135119
0.0153964
0.00129443
0.00103601
0.000286052
0.000791133
0.00325228
0.0382205
0.00226076
0.0317724
0.00101295
0.000808976
0.000775479
0.0401685
0.0401789
0.0335609
0.0340178
0.000795139
0.000751995
0.00059977
0.0367383
0.0337512
0.0313711
0.0288603
0.000583753
0.000573062
0.000438919
0.0291213
0.025848
0.0250963
0.0220606
0.000425076
0.000419454
0.000328401
0.0219149
0.0195739
0.0190343
0.0168751
0.00034222
0.000316784
0.000273959
0.0172563
0.0157809
0.0150164
0.0136238
0.000359295
0.000270375
0.000276997
0.0141403
0.0133773
0.0119809
0.0112653
0.000110763
0.000280076
7.71011e-05
0.0134378
0.00127052
0.0108177
0.000756515
0.000737426
5.29837e-05
0.000196101
0.00174211
0.0224802
0.000195216
0.000688647
0.000726979
0.000198945
0.000188547
0.0253268
0.0258481
0.000703742
0.000678691
0.000564249
0.000184036
0.000147903
0.024482
0.0224262
0.000661562
0.000537329
0.000414818
0.000142785
0.000110717
0.0197589
0.0173473
0.000517
0.000406552
0.000312223
0.000106676
8.29101e-05
0.0151322
0.013383
0.000390549
0.000313352
0.000261029
8.01e-05
6.56359e-05
0.011913
0.0106893
0.000302681
0.000261354
0.000260388
6.41066e-05
5.84788e-05
0.00947304
0.00871483
0.000256656
0.000257469
7.05276e-05
5.74249e-05
1.97485e-05
0.00783872
0.000495865
0.000258175
6.93531e-05
0.000307615
0.000384799
0.00990577
6.26106e-05
0.000313325
0.000394409
0.0101993
0.000366444
0.0128359
0.0143668
0.000331919
0.000390528
0.0137034
0.0154198
0.00035292
0.0160404
0.016017
0.000391536
0.000378145
0.0172599
0.017335
0.000314733
0.0160862
0.0153515
0.000373356
0.00033826
0.0174869
0.0167759
0.000272423
0.0147332
0.0137571
0.000331886
0.000293353
0.016086
0.0150405
0.000231586
0.0125713
0.0111402
0.000286977
0.000251018
0.0136584
0.0120873
0.00019538
0.0091886
0.00783026
0.000244871
0.000216115
0.00998929
0.0085802
4.65833e-05
0.0063767
0.000201953
0.000208925
5.10962e-05
0.00699995
0.000235548
0.0156374
0.00207315
0.0261152
0.000438096
0.0170733
0.00302033
0.031116
0.000224953
0.0121912
0.000818457
0.0099701
0.000266639
0.0140286
0.00127002
0.0450683
0.0149324
0.0569226
0.0142722
0.0535869
0.0899195
0.0714907
0.00362801
0.023038
0.0100114
0.0223225
0.00968176
0.0309992
0.0536322
0.0614059
0.0142154
0.062731
0.0899388
0.0774191
0.089981
0.0787075
0.0100557
0.0275108
0.0105695
0.0351589
0.0544138
0.0372028
0.0588125
0.0631398
0.0139785
0.06315
0.0899808
0.0789383
0.0899805
0.0789433
0.0105511
0.0278995
0.0105701
0.0378069
0.0588479
0.0377306
0.0588195
0.062857
0.0146434
0.0616668
0.0899809
0.0787687
0.0899399
0.0776076
0.010554
0.025451
0.010066
0.0369122
0.0587316
0.034616
0.0541732
0.0576888
0.00991272
0.046947
0.0899228
0.0720864
0.0141176
0.0551197
0.00998364
0.0164153
0.0035508
0.0300306
0.0533184
0.020788
0.0095514
0.0292698
0.000205829
0.00072331
0.00312304
0.0328998
0.000209545
0.000806817
0.0316017
0.00073899
0.000706989
0.0339834
0.0339652
0.000818939
0.000767167
0.0275956
0.000688385
0.00055558
0.0319226
0.0296886
0.000744638
0.000597615
0.0216551
0.000534475
0.00041952
0.0262908
0.0235328
0.000574362
0.000453577
0.0169652
0.000403114
0.000323598
0.0206296
0.0185033
0.000435764
0.000351481
0.0134654
0.000312638
0.000270985
0.0163947
0.0145733
0.000339537
0.000298955
0.0109075
0.000266112
0.000271454
0.0126478
0.0121617
0.000294969
0.000319302
0.000758024
0.000273731
7.43641e-05
0.0121084
0.00121949
0.000326797
9.38238e-05
0.000313307
0.00039443
0.0101994
7.97925e-05
0.000307522
0.000384902
0.0099045
0.000390487
0.0137024
0.0154185
0.000321188
0.000366358
0.0128323
0.0143627
0.000378099
0.0172585
0.0173336
0.000367051
0.000352835
0.0160362
0.0160126
0.00033821
0.0174852
0.0167746
0.000348179
0.00031466
0.0160821
0.0153475
0.000293307
0.0160844
0.0150391
0.00030863
0.00027237
0.0147297
0.0137541
0.000250971
0.0136578
0.0120876
0.000266354
0.000231551
0.0125705
0.0111408
0.000216053
0.00999031
0.00858225
0.000225579
0.000195385
0.0091891
0.00782986
5.10734e-05
0.00700388
0.000235448
0.000188217
4.6586e-05
0.00637363
0.000201937
0.0170727
0.00302032
0.0311146
0.000415079
0.0156346
0.00207312
0.0261125
0.000266528
0.0140234
0.00126922
0.00884285
0.000224911
0.0121884
0.000817959
0.0535855
0.0899195
0.0714888
0.00991922
0.0450666
0.0149308
0.0569199
0.00967444
0.0309887
0.0536071
0.0178351
0.0036275
0.0230228
0.0100115
0.0774162
0.089981
0.0787039
0.0149085
0.0614029
0.0142138
0.0627265
0.0543916
0.0371925
0.0587894
0.0259615
0.0100555
0.027493
0.0105711
0.0789344
0.0899805
0.0789398
0.0141524
0.0631357
0.0139766
0.0631465
0.0588277
0.0377208
0.0587964
0.0279555
0.0105522
0.0278821
0.0105716
0.0787657
0.08994
0.0776055
0.0140397
0.0628551
0.0146412
0.0616651
0.0587113
0.0346069
0.0541477
0.0271891
0.0105549
0.025435
0.0100665
0.0720852
0.014118
0.0551195
0.0146636
0.0576881
0.00991304
0.0469469
0.053296
0.020785
0.00954337
0.0220968
0.00998353
0.0164071
0.00355053
0.0329
0.000210178
0.000806825
0.00222765
0.0292701
0.000205864
0.000723296
0.0339644
0.000818939
0.000767148
0.0312243
0.0315993
0.000738961
0.00070691
0.0296868
0.000744618
0.000597585
0.0297063
0.0275914
0.000688298
0.000555478
0.0235307
0.000574334
0.00045354
0.0243378
0.0216507
0.000534373
0.000419428
0.0185009
0.00043573
0.000351431
0.0189578
0.0169612
0.000403017
0.000323534
0.0145733
0.000339493
0.000298882
0.0151121
0.0134633
0.000312569
0.000270943
0.012164
0.000294899
0.000319184
0.0115753
0.0109062
0.000266072
0.000271357
0.00121871
0.000326705
9.37452e-05
0.0104237
0.00075751
0.000273589
7.43526e-05
0.000300065
0.000375323
0.00882332
4.04926e-05
0.000105793
0.000117935
0.000325628
0.000356596
0.0111266
0.0124868
0.000131498
0.000122098
0.000337772
0.000381086
0.000343947
0.0132707
0.0132813
0.000145752
0.000110698
0.000380435
0.000354689
0.000306798
0.0129456
0.0123005
0.000109034
9.77382e-05
0.000347687
0.000304172
0.000265341
0.011555
0.010735
0.000114204
7.94825e-05
0.000296902
0.000259228
0.000225496
0.00980307
0.00879151
7.78061e-05
6.60966e-05
0.000253468
0.000225595
0.000189248
0.00763158
0.00660213
7.70206e-05
6.23614e-05
0.00022107
0.000196174
4.51041e-05
0.0051823
0.000191047
4.84667e-05
1.66392e-05
0.00018966
4.24928e-05
0.0129403
0.00154731
0.0185272
0.000150681
0.000350898
0.000169943
0.000606412
0.0169002
0.0211215
0.0226264
0.000365073
0.000412353
0.00063313
0.000686854
0.0174957
0.0227591
0.0224068
0.000411126
0.000379475
0.000674422
0.000584513
0.0157462
0.0204384
0.0192718
0.000371467
0.000321758
0.000563655
0.000459345
0.0135273
0.0170927
0.0160148
0.000313665
0.000272211
0.0004426
0.000363751
0.0112469
0.0145339
0.0134631
0.000266122
0.000237437
0.000353186
0.000312754
0.00860097
0.0117584
0.010664
0.000233055
0.000210063
0.000308843
0.000308574
0.000212455
0.00930334
0.000557359
0.00020423
4.94285e-05
0.000308973
9.20894e-05
0.0284897
0.00323907
0.0366713
0.0001781
0.000668883
0.000355469
0.000991866
0.0317011
0.0381765
0.0386114
0.000697784
0.000740704
0.00100776
0.000989779
0.0288092
0.0356281
0.0334563
0.00072458
0.000617153
0.000961775
0.000800027
0.0232664
0.0295062
0.026719
0.00059461
0.000479784
0.000769962
0.000607043
0.0186166
0.0231983
0.0209771
0.000462041
0.000376226
0.000583558
0.00045547
0.0155405
0.0188647
0.0173559
0.000365058
0.000321659
0.00044035
0.000373703
0.0129402
0.0156582
0.0148741
0.000317975
0.000321567
0.00036992
0.000387788
0.000793864
0.0143932
0.00127879
0.000323378
9.73528e-05
0.000395187
0.000123613
0.0417476
0.00329343
0.0441291
0.000371917
0.00102758
0.000330919
0.00115407
0.0440861
0.0470558
0.0473934
0.00104435
0.00102462
0.00117519
0.00115183
0.037787
0.0442419
0.0406345
0.00099596
0.000825515
0.00111983
0.000924663
0.0298559
0.0358477
0.0318084
0.000795468
0.000623668
0.000893464
0.00069402
0.0230616
0.0275916
0.0244534
0.000599761
0.000464996
0.000666858
0.000507051
0.0189223
0.0218831
0.0199255
0.000449233
0.00037907
0.000489082
0.000402009
0.0164257
0.0179515
0.0174293
0.000375099
0.000393921
0.000396828
0.000415719
0.00129967
0.0169233
0.00135284
0.000401886
0.000125707
0.00042464
0.00013187
0.0449572
0.00330173
0.0449487
0.000329129
0.00116097
0.000305268
0.00116267
0.0489266
0.0484074
0.0490396
0.00118303
0.00116077
0.00118641
0.00116503
0.0421601
0.0462373
0.0422008
0.00112873
0.000931977
0.00113249
0.000931109
0.0328656
0.0372747
0.0327916
0.000900819
0.000699135
0.000899008
0.000693894
0.0250786
0.0284293
0.0249089
0.000671824
0.000509794
0.000665685
0.000502644
0.0203042
0.0222041
0.0201086
0.000491526
0.000402803
0.000483952
0.000394532
0.0176662
0.0180076
0.0174564
0.000397416
0.00041597
0.000389281
0.00040938
0.00135405
0.0171265
0.00135337
0.000425121
0.000131897
0.000418875
0.000127497
0.0443156
0.00326989
0.0423243
0.000316395
0.00115978
0.000322287
0.00106526
0.0478619
0.0448767
0.0449885
0.0011828
0.00115849
0.00108198
0.001044
0.040836
0.0414925
0.038092
0.00112563
0.000923872
0.00101255
0.000821177
0.0315641
0.0334249
0.0294113
0.000891422
0.000686921
0.00078641
0.000603123
0.0238828
0.0254389
0.022162
0.00065848
0.000496934
0.000577059
0.000438341
0.0192213
0.0195553
0.0178542
0.000478412
0.00039026
0.000421663
0.000351594
0.0167959
0.0159158
0.0154363
0.000385201
0.000405904
0.000347484
0.000369442
0.00135004
0.0153911
0.00129311
0.000415477
0.000125984
0.000378754
0.000114032
0.0382184
0.00226072
0.0317712
0.000316854
0.00103597
0.000232159
0.000791097
0.0401746
0.0335582
0.0340135
0.00105092
0.0010128
0.000808911
0.000775324
0.0337452
0.031366
0.0288547
0.000981531
0.00079496
0.000751843
0.000599592
0.0258424
0.0250909
0.0220563
0.000759876
0.000583573
0.000572888
0.000438785
0.0195703
0.0190305
0.0168728
0.00055738
0.000424951
0.00041933
0.00032834
0.0157801
0.0150147
0.013623
0.000408705
0.000342201
0.000316736
0.000273971
0.0133808
0.0119816
0.011267
0.000338305
0.00035922
0.000270393
0.000276934
0.00126924
0.0108152
0.000755642
0.000368187
0.000110597
0.000279972
7.69949e-05
0.022479
0.000195253
0.000688597
0.000217319
0.000737356
5.25791e-05
0.000196042
0.0258441
0.000703679
0.000678558
0.000754208
0.00072682
0.00019891
0.000188442
0.0224211
0.000661425
0.000537173
0.000705664
0.000564074
0.000183957
0.00014779
0.0173429
0.000516838
0.000406388
0.000539198
0.000414695
0.000142697
0.000110639
0.0133801
0.000390395
0.000313196
0.000396369
0.000312169
0.000106604
8.28445e-05
0.0106878
0.000302541
0.000261192
0.000301206
0.000261045
8.00438e-05
6.55721e-05
0.00871612
0.000256496
0.000257187
0.000257469
0.000260347
6.40494e-05
5.84281e-05
0.000495017
0.000257888
6.92346e-05
0.000261719
7.04846e-05
5.73831e-05
1.93347e-05
0.00214163
4.38387e-05
8.5618e-05
8.43311e-05
0.000177111
0.000229493
0.000172494
0.00475093
0.000115416
0.000252628
0.000261569
0.000285075
0.00431001
0.000270746
0.00554012
0.000117681
0.000279049
0.000299236
0.000297785
0.00545501
0.00027584
0.00531763
0.000104879
0.000261476
0.000284345
0.000273277
0.00540487
0.000250879
0.0047251
8.83674e-05
0.000230723
0.00025138
0.000238419
0.00486356
0.000219244
0.00402076
7.21054e-05
0.000199635
0.000215811
0.000203512
0.00418069
0.000189292
0.00327165
7.13121e-05
0.000170919
0.000182476
0.000171584
0.00343847
0.000161213
0.00216341
5.0572e-05
0.000137904
0.000146674
0.000123764
0.00253783
0.000115422
0.00656762
0.000270367
0.000141956
0.000333977
0.00562932
0.000393398
0.000324237
0.0110531
0.000398018
0.000454018
0.00884895
0.00950573
0.0102853
0.000497057
0.0116401
0.000403622
0.000507155
0.0100663
0.0101218
0.0116074
0.000495104
0.0100954
0.000351225
0.000446282
0.00921406
0.00899663
0.0103279
0.000418027
0.00842141
0.000295193
0.000365433
0.00790235
0.00766568
0.00868007
0.00034046
0.00718021
0.000253171
0.000302863
0.00676654
0.0065577
0.00740859
0.000287411
0.00609748
0.000224186
0.000266873
0.00570395
0.00550377
0.00630315
0.00026009
0.00446941
0.000180522
0.000248139
0.00442272
0.00386745
0.00504889
0.000227673
0.0144531
0.000495082
0.000219315
0.000646463
0.0118491
0.000892661
0.000650245
0.0211369
0.000754394
0.000849082
0.0176244
0.018758
0.0200259
0.000889031
0.0196296
0.000684395
0.000831396
0.018334
0.0178078
0.0205081
0.000776569
0.0153621
0.000543703
0.000670148
0.0149981
0.0140957
0.016418
0.000609333
0.0117426
0.000421705
0.000514453
0.0115758
0.0109052
0.0124867
0.000465522
0.00956128
0.000341394
0.000398762
0.00936068
0.00896588
0.0100373
0.000369311
0.00845094
0.000315315
0.000342587
0.00804735
0.00787721
0.00858006
0.00034113
0.00756637
0.000312471
0.000359372
0.0073709
0.00681858
0.00808984
0.000354255
0.0199413
0.000867391
0.000328393
0.00115658
0.0194136
0.00120354
0.000926251
0.0285861
0.00107202
0.00111938
0.0264967
0.0274507
0.0275667
0.0011449
0.0259578
0.000923674
0.0010651
0.025882
0.024726
0.0273312
0.000985278
0.0199901
0.00071803
0.000850458
0.0204402
0.0189231
0.0217158
0.00076492
0.0146194
0.000535844
0.000636391
0.0151841
0.013979
0.0159079
0.000565243
0.0113769
0.000410066
0.000471183
0.0115978
0.0109511
0.0120796
0.000427495
0.0101085
0.000373501
0.000387873
0.00990957
0.00977239
0.0102314
0.000385567
0.0096624
0.000402525
0.000416032
0.0097852
0.00931457
0.0101569
0.000417563
0.0203142
0.000955856
0.000374992
0.00122686
0.0203963
0.00120316
0.000938883
0.0308716
0.00121178
0.00119066
0.02959
0.0307767
0.0296487
0.00122136
0.0284789
0.00104278
0.00114047
0.0295836
0.0282777
0.0298431
0.00105327
0.0217555
0.000809116
0.000910064
0.0235757
0.0215681
0.023776
0.000817258
0.0156529
0.000594217
0.000678062
0.0170429
0.0155234
0.0171887
0.000599203
0.012031
0.00044337
0.000494888
0.0127455
0.0119584
0.0128326
0.00044527
0.010603
0.000393469
0.000397724
0.0106848
0.0105726
0.0107116
0.000393364
0.0101849
0.000427594
0.000425495
0.010664
0.0101425
0.0107066
0.000428004
0.0202792
0.00094023
0.000401513
0.00120757
0.0203015
0.00121684
0.000943404
0.0300222
0.00121192
0.001157
0.0293735
0.0305655
0.0289013
0.00118176
0.027138
0.00103823
0.00109169
0.0293334
0.027889
0.0284443
0.00100584
0.0204485
0.000798343
0.000858468
0.0231259
0.021133
0.0223486
0.000767151
0.0146416
0.000580433
0.000631204
0.0165336
0.0150923
0.0160544
0.000556376
0.0112572
0.000430052
0.000458902
0.0123655
0.011584
0.0120006
0.00041343
0.00999809
0.000381917
0.00037297
0.0103722
0.0102291
0.0101429
0.000370809
0.00967551
0.000418547
0.000404718
0.0103662
0.00988783
0.0101282
0.000407622
0.0178313
0.000878949
0.000288999
0.00115901
0.0189785
0.00106648
0.000792381
0.0249077
0.00107137
0.000963105
0.0255532
0.0264939
0.0240685
0.00097966
0.0218423
0.000903262
0.000887979
0.0248316
0.0234658
0.0229489
0.000815195
0.016126
0.000680522
0.000680426
0.0187846
0.017456
0.0174377
0.000608279
0.0117221
0.000494512
0.000497941
0.0135836
0.0126488
0.0126574
0.000443399
0.00921617
0.000371291
0.000369638
0.01038
0.00984593
0.00971154
0.000338507
0.00815801
0.000337307
0.000311372
0.00881594
0.00870249
0.00829485
0.000310745
0.00768444
0.000370834
0.000336432
0.00869828
0.00832622
0.00804235
0.00033624
0.00948792
0.000593465
0.000168572
0.000748702
0.0118632
0.00058323
0.000475844
0.0151667
0.000773444
0.000609594
0.0172053
0.0179201
0.0144546
0.000621856
0.0139298
0.000649381
0.000570057
0.0168134
0.0161769
0.0143941
0.000525182
0.0107324
0.000483372
0.000438775
0.0130507
0.0122622
0.011347
0.000394849
0.00808905
0.000356714
0.000327602
0.0097079
0.00915554
0.00853422
0.000297134
0.00640204
0.000279751
0.000254297
0.00761236
0.00725066
0.00667823
0.000237292
0.00538525
0.000255015
0.000217877
0.00634447
0.00622401
0.00553669
0.000214422
0.00431797
0.000250669
0.00021251
0.00562832
0.00515611
0.00474907
0.00019736
0.00331929
0.000211786
0.000270448
8.23518e-05
0.00331474
0.000203349
0.000271055
0.00798251
0.000349582
0.0068794
0.000332574
0.00775233
0.000364
0.00706451
0.0100272
0.000364279
0.00933836
0.000384145
0.00962128
0.000381178
0.00971932
0.00986413
0.000334681
0.00945645
0.000364579
0.00943399
0.000350444
0.00987574
0.00882156
0.000293364
0.00860146
0.000323542
0.00845021
0.000307574
0.00900328
0.0074308
0.000252201
0.00737347
0.000279452
0.00712758
0.0002648
0.00770485
0.00575963
0.000214063
0.00581139
0.000237503
0.00551006
0.000226189
0.00606988
0.00391368
0.000162079
0.00432232
0.000201035
0.00368098
0.000174282
0.00456829
0.0119872
0.00934791
0.000557891
0.000435671
0.0116254
0.00971486
0.000619696
0.0582649
0.0388843
0.015221
0.0144507
0.0465622
0.0454227
0.0845772
0.0683792
0.0547519
0.0145414
0.0869803
0.0550689
0.0682379
0.0867873
0.0683407
0.0556241
0.0139845
0.0865714
0.0556272
0.0683849
0.0864854
0.0684071
0.0555719
0.0142522
0.0865296
0.0554792
0.0683933
0.0866684
0.0652215
0.0539002
0.0148178
0.0868696
0.0522103
0.0674445
0.0858202
0.0245592
0.0302268
0.00094575
0.00292198
0.0219337
0.0338121
0.00113631
0.00325162
0.000162808
0.000232942
8.14152e-05
0.00319858
0.000195673
0.000267382
0.00809284
0.00036751
0.00713898
0.000333042
0.00808145
0.000366
0.00714112
0.0103507
0.000389199
0.0101119
0.00038748
0.010466
0.000384644
0.0100169
0.0102282
0.000359155
0.0103772
0.000368355
0.0103654
0.000354216
0.0102357
0.00912499
0.000315624
0.00946457
0.000327099
0.00925922
0.000310993
0.00932597
0.00766673
0.000272083
0.00809023
0.000282637
0.00777991
0.000267874
0.00796973
0.00599362
0.000233735
0.00640382
0.000240654
0.00608762
0.000229434
0.00630779
0.00407683
0.000181539
0.00484574
0.000204345
0.00415504
0.000177324
0.004758
0.0125411
0.00978957
0.000661656
0.000438955
0.0128668
0.0096054
0.000639002
0.063758
0.0508047
0.0864565
0.0145202
0.0654377
0.0496957
0.0855298
0.0799751
0.0849661
0.0899777
0.0884811
0.0853357
0.079745
0.0884085
0.0798555
0.0854962
0.08998
0.0883013
0.0854765
0.0799121
0.0882594
0.0799674
0.0855137
0.0899796
0.0882823
0.0854975
0.0799378
0.0883492
0.0741428
0.0828134
0.0882046
0.0884044
0.0772896
0.0781581
0.0870425
0.026163
0.0377189
0.00120032
0.00302412
0.0270694
0.0366861
0.00117331
0.00288881
0.000210923
0.000267124
7.05914e-05
0.003217
0.000191928
0.000244961
0.00650522
0.000340432
0.00642683
0.000279565
0.00725334
0.000304811
0.00578457
0.00777851
0.000355082
0.00856897
0.000319535
0.00885504
0.000317985
0.00755403
0.0075284
0.000326336
0.00865827
0.000303887
0.00864916
0.000292229
0.00755613
0.00668439
0.000285841
0.00785824
0.000269038
0.00771231
0.000255352
0.00681071
0.0056373
0.000245412
0.00671582
0.000231449
0.00648376
0.000218573
0.00582431
0.00451644
0.000208296
0.00536088
0.000196106
0.00511127
0.000184699
0.00472892
0.00290927
0.000156194
0.00396247
0.000158804
0.00336611
0.000134742
0.00345315
0.0094485
0.00915455
0.000519717
0.000356599
0.0107704
0.00790467
0.000430602
0.0244151
0.0283539
0.00295922
0.000806853
0.0335112
0.0199265
0.00114793
0.0334884
0.0419344
0.00328019
0.00141665
0.0426855
0.0325523
0.00145716
0.0346166
0.0439359
0.00329916
0.00148438
0.0439645
0.0346984
0.00146833
0.0343719
0.0437783
0.00329678
0.00147025
0.0435521
0.0345391
0.0014729
0.0298304
0.0408953
0.00311945
0.00141314
0.0391056
0.0318868
0.00131011
0.0141147
0.0240292
0.000850548
0.000877597
0.0182895
0.0188989
0.000648168
0.00294433
6.23668e-05
0.000243942
0.000250341
0.000200369
0.00371757
0.00019862
0.00359403
9.48918e-05
0.000253114
0.000315673
0.000256965
0.00465547
0.00019849
0.00463954
0.000265972
0.000275349
0.00662686
0.00553018
0.00569557
0.000222136
0.00288871
7.05539e-05
0.000210758
0.000266873
0.000192171
0.000244377
0.00321487
0.00393818
0.000267858
0.000239351
0.00549503
0.000215983
0.00496972
0.00433642
0.00480829
0.000335665
0.000299482
0.00738125
0.000271321
0.0064997
0.00554837
0.00507138
0.000117049
0.000279377
0.000298598
0.00028963
0.00531851
0.000273957
0.0066366
0.000275003
0.000366205
0.00734301
0.00611761
0.00791279
0.000294567
0.0068882
0.000304219
0.00037158
0.00855628
0.00721693
0.00822247
0.000298147
0.0065085
0.000279764
0.000340609
0.00643008
0.00030502
0.00578847
0.00725655
0.00695893
0.000319112
0.000346063
0.00836221
0.000309882
0.00741668
0.00778346
0.0055248
0.000117009
0.000265251
0.000288088
0.00029559
0.00550741
0.000273246
0.00740931
0.000303736
0.000374791
0.00858446
0.00726415
0.00872331
0.000299722
0.00725128
0.000287085
0.000369759
0.00847414
0.00727228
0.00847674
0.0002966
0.00778146
0.000319679
0.000355257
0.00857184
0.00031815
0.00755704
0.00885783
0.00768846
0.000308056
0.000352564
0.00888919
0.000315874
0.00777269
0.00875604
0.00516096
0.000103441
0.000235194
0.00025626
0.000268645
0.00504089
0.000246487
0.00696249
0.000282649
0.000330034
0.00808522
0.00701569
0.00800411
0.000270466
0.00665814
0.000252742
0.000322595
0.00748672
0.0065664
0.00761296
0.000265465
0.00753076
0.000304005
0.000326499
0.00866083
0.000292369
0.0075586
0.00865161
0.00722419
0.000274438
0.000320857
0.00821961
0.000287456
0.00713865
0.00829193
0.00453355
8.67534e-05
0.000203868
0.000220648
0.000233383
0.00438064
0.000214751
0.00614231
0.000247733
0.000280321
0.00710209
0.00625602
0.00695364
0.000235209
0.00583943
0.000218707
0.000273879
0.00645521
0.00570672
0.0066203
0.000230354
0.00668628
0.000269127
0.000285978
0.00786034
0.000255471
0.00681274
0.00771422
0.00634068
0.000236752
0.000279847
0.00712035
0.000250099
0.006179
0.00731514
0.00381687
7.05759e-05
0.0001749
0.000186949
0.000198684
0.00364559
0.000185066
0.00525354
0.000214127
0.000241176
0.00613139
0.0054028
0.00595131
0.000203289
0.00495602
0.000188331
0.000236268
0.0054485
0.00477785
0.00565317
0.000198863
0.00563741
0.000231495
0.000245512
0.00671638
0.000218632
0.00582478
0.00648395
0.00528953
0.000200997
0.000239578
0.00579877
0.000213502
0.00507296
0.00606697
0.00306397
5.66229e-05
0.000144088
0.000153274
0.000166968
0.00284775
0.000156901
0.00427903
0.000184062
0.000211762
0.00511118
0.00446497
0.00491494
0.000174394
0.00397608
0.000157169
0.00020759
0.00431471
0.00371326
0.00458509
0.000169949
0.00451563
0.000196128
0.000208353
0.00536049
0.000184724
0.00472827
0.00511073
0.00420395
0.000165769
0.000203348
0.00445703
0.000179887
0.00392051
0.00475258
0.00157496
3.77291e-05
3.08011e-05
3.51351e-05
0.000111195
9.69241e-05
0.000102849
0.00280858
0.000150586
0.000165439
0.00378767
0.00326701
0.00329461
0.000127439
0.00200258
3.21687e-05
0.000149989
0.000147372
0.000108153
0.00236856
0.000113916
0.00290803
0.000158794
0.000156213
0.00396165
0.00013475
0.00345177
0.00336562
0.00206932
3.85165e-05
0.000141949
0.000128043
0.000121935
0.000107255
0.00237948
0.00267114
0.000161673
0.00014209
0.00350625
0.000119696
0.0031249
0.00304503
0.00808585
0.000294566
0.000434417
0.00806334
0.00697006
0.00932774
0.000356643
0.0077435
0.000147457
0.000446118
0.000561571
0.000424733
0.00949538
0.000348732
0.00974529
0.000472147
0.000498515
0.0133277
0.011249
0.0117338
0.000386662
0.00945222
0.000356471
0.00915541
0.000519634
0.00790761
0.000430592
0.0107718
0.0114788
0.000679712
0.000612249
0.0202591
0.000471294
0.0152397
0.0145468
0.0114319
0.00040379
0.000510436
0.0101293
0.00979878
0.011737
0.000503804
0.0131803
0.000494085
0.000689146
0.014575
0.0123385
0.0154592
0.000541974
0.0135372
0.000551307
0.000696183
0.0161214
0.0137742
0.0159259
0.000549019
0.0112026