/*--------------------------------*- C++ -*----------------------------------*\
| =========                 |                                                 |
| \\      /  F ield         | OpenFOAM: The Open Source CFD Toolbox           |
|  \\    /   O peration     | Version:  2.4.0                                 |
|   \\  /    A nd           | Web:      www.OpenFOAM.org                      |
|    \\/     M anipulation  |                                                 |
\*---------------------------------------------------------------------------*/
FoamFile
{
    version     2.0;
    format      ascii;
    class       volVectorField;
    location    "70";
    object      U;
}
// * * * * * * * * * * * * * * * * * * * * * * * * * * * * * * * * * * * * * //

dimensions      [0 1 -1 0 0 0 0];

internalField   nonuniform List<vector> 
43096
(
(0.00130676 -0.00271177 -0.00740523)
(-0.0502261 0.00293815 -0.000764489)
(-0.0712891 0.00239152 -0.0032701)
(-0.061208 0.00206218 -0.00397565)
(-0.0432332 0.00170259 -0.00368066)
(-0.0261521 0.0014094 -0.00284866)
(-0.013108 0.0008982 -0.00235649)
(-0.00249213 0.000255085 -0.00190605)
(0.000903565 0.0487875 -0.0103703)
(-0.0564377 0.0236552 0.00190268)
(-0.0642376 -0.0113284 0.000713947)
(-0.0505329 -0.020865 0.000852007)
(-0.035796 -0.0187753 0.00079713)
(-0.0228536 -0.0139588 0.000609644)
(-0.0123849 -0.00949251 0.000490299)
(-0.00506847 -0.00664512 0.000406664)
(0.0059196 0.0971765 -0.0127476)
(-0.0758994 0.0329635 -2.59818e-05)
(-0.047675 -0.0241909 -0.0049817)
(-0.0204788 -0.0367302 -0.00200919)
(-0.0102009 -0.0333957 -0.000300385)
(-0.00598993 -0.0262645 0.0001857)
(-0.00335682 -0.0193505 0.000259707)
(-0.00127357 -0.0140607 0.000409459)
(0.0102604 0.122852 -0.0172171)
(-0.0943847 0.0267055 -0.00117697)
(-0.0341813 -0.0188799 -0.0091748)
(0.00887519 -0.0326158 -0.00521801)
(0.0179922 -0.0306937 -0.00172211)
(0.0130992 -0.0249331 -0.000402818)
(0.00676255 -0.0195311 -6.56963e-05)
(0.00218017 -0.014878 0.000133889)
(0.0132373 0.103251 -0.0150804)
(-0.102788 0.013599 -0.00306897)
(-0.0275836 -0.00273088 -0.0121125)
(0.0241224 -0.00975031 -0.00774844)
(0.0343782 -0.0117933 -0.00250783)
(0.024389 -0.0118791 -0.000612646)
(0.0128998 -0.0110918 -0.000150065)
(0.00436748 -0.00947304 6.92858e-05)
(0.0155634 -0.08071 -0.013104)
(-0.104118 0.00409843 -0.00314001)
(-0.0307745 0.0153412 -0.0117083)
(0.0201856 0.0166834 -0.00706918)
(0.0308066 0.0113342 -0.00215502)
(0.0219143 0.0048074 -0.000508406)
(0.0114824 -1.78417e-05 4.73558e-05)
(0.00386203 -0.00227095 0.000105842)
(0.00951771 -0.108712 -0.0179331)
(-0.103083 -0.00154887 -0.00133746)
(-0.0462039 0.0312315 -0.00763277)
(-0.00305462 0.0348033 -0.00341628)
(0.00858875 0.0253418 -0.000865991)
(0.0074713 0.0143659 2.25205e-05)
(0.00397196 0.00638731 0.00014712)
(0.00104391 0.00220514 0.000136831)
(0.00341569 -0.0685575 -0.0143763)
(-0.0990483 -0.00170049 5.24654e-05)
(-0.0712097 0.0297946 -0.00259808)
(-0.0369529 0.027093 -0.000195191)
(-0.0186161 0.017336 0.00067789)
(-0.00880573 0.00907335 0.000603648)
(-0.00370117 0.00375773 0.000336806)
(-0.00151048 0.00152442 0.000137486)
(0.00130136 -0.00632108 0.0171662)
(-0.056399 0.00357052 0.00639485)
(-0.073859 -0.000952819 0.00401103)
(-0.0623875 -0.00236434 0.00143384)
(-0.0438764 -0.00243703 -0.000476974)
(-0.0266995 -0.00207118 -0.0012022)
(-0.0134872 -0.0014518 -0.000908889)
(-0.00362566 -0.0014841 -0.000440954)
(-0.0096022 0.0591659 0.0142857)
(-0.0410777 0.0221651 -0.0110233)
(-0.0353752 -0.0105382 -0.00718412)
(-0.0304353 -0.019173 -0.00239485)
(-0.0234593 -0.0199195 -0.000192634)
(-0.0152468 -0.0171045 0.000607708)
(-0.00796803 -0.0125405 0.000966028)
(-0.0045952 -0.00833076 0.00137532)
(-0.107093 0.183361 0.130174)
(0.063634 -0.021629 -0.0477773)
(0.0275742 -0.0210239 -0.0269695)
(0.0108343 -0.0228667 -0.0109025)
(0.0027973 -0.0232368 -0.00365266)
(0.000372809 -0.0206412 -0.000803091)
(0.000544501 -0.0155388 0.000275515)
(0.000703697 -0.0110366 0.00112698)
(-0.178931 0.0610147 0.213712)
(0.146293 0.0061662 -0.0636378)
(0.0856066 -0.00434995 -0.0396143)
(0.0485277 -0.0119662 -0.0183884)
(0.0269806 -0.0151928 -0.00706221)
(0.0144435 -0.0151552 -0.00228401)
(0.00720544 -0.0122648 -0.000621015)
(0.00373731 -0.00938305 4.9617e-05)
(-0.191296 0.0458969 0.23299)
(0.157167 0.00431837 -0.0652974)
(0.0998331 0.00420047 -0.0418378)
(0.0595924 0.00145417 -0.020197)
(0.0346746 -0.00210183 -0.00806092)
(0.0192056 -0.00470883 -0.00273839)
(0.00983377 -0.00519484 -0.00085985)
(0.00553949 -0.00557118 -0.000343641)
(-0.193621 0.0299508 0.235266)
(0.140589 0.00404446 -0.0648834)
(0.0775888 0.0133092 -0.0395739)
(0.042329 0.0143462 -0.0178567)
(0.0233583 0.0102106 -0.00669425)
(0.0128136 0.00516066 -0.00211617)
(0.00655086 0.00105437 -0.000625552)
(0.00435102 -0.00136363 -0.000194576)
(-0.182742 0.0122222 0.217103)
(0.0507031 0.0385263 -0.0487037)
(0.0122386 0.0324093 -0.026237)
(0.00130322 0.0230968 -0.00984358)
(-0.00106943 0.0152003 -0.00297992)
(-0.00020712 0.00863265 -0.00057473)
(0.000518479 0.00347364 0.000128409)
(0.0012908 0.00108598 0.000263617)
(-0.201525 -0.477058 0.142989)
(-0.0616928 0.00194158 -0.00956316)
(-0.0465697 0.0235753 -0.0110012)
(-0.0315638 0.0173242 -0.00358209)
(-0.0180214 0.0112393 -0.00033381)
(-0.00835972 0.00645793 0.000403848)
(-0.00303349 0.00273485 0.000411557)
(-0.000704664 0.00103155 0.000296591)
(0.00458052 -0.00395414 -0.0093747)
(-0.0504212 0.0054853 -0.000385666)
(-0.0737846 0.000243008 -0.000570673)
(-0.0630894 -0.00156091 -0.000281886)
(-0.0443971 -0.00199222 -8.54896e-05)
(-0.0268116 -0.00178007 5.94876e-06)
(-0.013431 -0.0012058 1.22157e-05)
(-0.00326573 -0.00121287 -3.56595e-05)
(-0.00680509 0.0638494 -0.00250872)
(-0.0410858 0.0221617 0.0110027)
(-0.0353852 -0.0105359 0.00717348)
(-0.030445 -0.0191682 0.00239557)
(-0.0234673 -0.0199133 0.000203835)
(-0.0152521 -0.0170981 -0.000590703)
(-0.00797186 -0.0125365 -0.000951528)
(-0.00454362 -0.00752859 -0.000502006)
(-0.18699 0.232478 0.0342461)
(0.0636236 -0.0216317 0.0477568)
(0.027559 -0.0210217 0.0269537)
(0.0108175 -0.0228634 0.0108941)
(0.00278488 -0.0232329 0.00365554)
(0.000364712 -0.0206365 0.000817684)
(0.000541378 -0.015536 -0.000258542)
(0.00101123 -0.00963618 -0.000378763)
(0.379152 0.000791916 0.000102367)
(0.146275 0.00616306 0.0636158)
(0.0855848 -0.00434894 0.0395974)
(0.0485059 -0.0119654 0.0183788)
(0.0269639 -0.0151922 0.00706165)
(0.014433 -0.0151537 0.00229595)
(0.00720236 -0.0122641 0.000638085)
(0.00373709 -0.00790645 1.3285e-05)
(0.380634 0.000189978 6.48076e-05)
(0.157143 0.00432126 0.0652707)
(0.0998096 0.00420033 0.0418221)
(0.0595689 0.00145235 0.0201881)
(0.0346564 -0.00210419 0.00805967)
(0.0191943 -0.00471099 0.00274948)
(0.00982999 -0.00519644 0.000876375)
(0.00546936 -0.00482222 0.000193495)
(0.38061 -2.10419e-05 6.62331e-05)
(0.140569 0.00404683 0.0648673)
(0.0775667 0.0133069 0.0395598)
(0.0423087 0.0143422 0.0178463)
(0.0233425 0.0102055 0.00669412)
(0.0128031 0.00515504 0.00212956)
(0.00654753 0.00104979 0.000644751)
(0.00430357 -0.00133306 0.000126746)
(0.378421 -0.000515796 0.000111054)
(0.0506951 0.0385282 0.0486893)
(0.0122235 0.0324062 0.0262245)
(0.00128827 0.0230912 0.00983884)
(-0.00108172 0.0151933 0.00298821)
(-0.000215605 0.00862541 0.000594168)
(0.000514875 0.00346724 -0.000108426)
(0.0014625 0.000684026 -5.83027e-05)
(-0.318354 -0.590579 -0.00142601)
(-0.0528269 0.00129621 0.00745794)
(-0.0431806 0.0206416 0.00557179)
(-0.0309451 0.0150386 0.00187441)
(-0.018213 0.00989683 0.000316085)
(-0.00859993 0.00578166 -9.07217e-05)
(-0.00307958 0.00237498 -0.000151467)
(-0.000529704 0.000776603 -0.000124104)
(0.000625166 -0.00626436 -0.013965)
(-0.057195 0.00301015 -0.00644635)
(-0.0739671 -0.00137931 -0.00345136)
(-0.0623741 -0.00269841 -0.000724821)
(-0.0438491 -0.00271235 0.00111818)
(-0.0267017 -0.00227455 0.00172643)
(-0.0135259 -0.0016592 0.00127029)
(-0.00370098 -0.00158701 0.000720109)
(-0.0103005 0.057653 -0.0127072)
(-0.0588225 0.0287386 -0.00197944)
(-0.05557 -0.00744544 0.001791)
(-0.0431773 -0.019564 -0.000590649)
(-0.0302589 -0.0204552 -0.00177262)
(-0.0190448 -0.017316 -0.00173201)
(-0.0102809 -0.013084 -0.00153415)
(-0.00431657 -0.00939808 -0.00167608)
(-0.1953 0.224647 -0.422467)
(-0.0439372 0.0260689 0.0153133)
(-0.0194168 -0.0129272 0.0228836)
(-0.00999347 -0.0256542 0.00954803)
(-0.00575153 -0.0269004 0.00231723)
(-0.00322273 -0.0232767 -0.00015892)
(-0.00133235 -0.0181576 -0.000819907)
(8.32053e-05 -0.0132395 -0.00133306)
(-0.306975 0.0834519 -0.584614)
(-0.0103538 0.020663 0.0272503)
(0.0185025 -0.00613744 0.0376378)
(0.024023 -0.0178436 0.0193288)
(0.0196008 -0.0209934 0.00680307)
(0.0129364 -0.0194799 0.00168438)
(0.00723137 -0.0161189 0.000257738)
(0.00334503 -0.0119078 -8.60375e-05)
(-0.302244 0.037981 -0.61347)
(-0.000197503 0.0100085 0.0299956)
(0.0346404 0.00285803 0.0435446)
(0.0396015 -0.00234576 0.0234155)
(0.0315046 -0.00591123 0.0087116)
(0.0207138 -0.00791966 0.00250519)
(0.0114655 -0.00834322 0.000687849)
(0.00512376 -0.00698168 0.000284153)
(-0.304076 -0.0178046 -0.614269)
(-0.00496173 -0.000395288 0.0300295)
(0.0243806 0.0119835 0.0410823)
(0.0291114 0.013758 0.0212913)
(0.0236764 0.0098741 0.00732907)
(0.0160949 0.00442624 0.00186629)
(0.00907509 0.000227027 0.000416652)
(0.00408346 -0.00150489 0.000115729)
(-0.310977 -0.0621571 -0.585522)
(-0.0376143 0.00193695 0.0206916)
(-0.0155366 0.0232094 0.0281092)
(-0.00447359 0.0240623 0.0117801)
(0.00096641 0.0179824 0.00297356)
(0.0027562 0.0105779 -4.40148e-05)
(0.0023751 0.00472706 -0.000471125)
(0.00114994 0.00160767 -0.000392263)
(-0.0952355 -0.225389 -0.196618)
(-0.078772 -0.00331203 0.00207932)
(-0.0592829 0.0206601 0.00960003)
(-0.0360014 0.0184122 0.00226921)
(-0.0189252 0.0126421 -0.000669772)
(-0.00839244 0.00733654 -0.000975371)
(-0.00305271 0.003321 -0.000644176)
(-0.00105492 0.001392 -0.00036013)
(-0.0431266 0.00315941 -7.73559e-05)
(0.00034089 0.04074 -0.0102375)
(-0.0509763 0.0265072 0.00195626)
(0.000885674 -0.00627798 0.0143507)
(-0.051832 0.00389863 0.00674723)
(-0.0104438 0.0483164 0.0121467)
(-0.0465752 0.0358493 0.00726372)
(-0.0711057 0.00241634 -0.00308297)
(-0.0557739 0.0215933 0.0017944)
(-0.0667539 -0.00680972 0.00118558)
(-0.0571623 0.00300571 0.00639557)
(-0.0741544 -0.000940011 0.00388446)
(-0.0606853 0.0188429 0.00389034)
(-0.0663374 0.00472416 0.00331731)
(-0.0630109 0.00206645 -0.00354134)
(-0.0660751 -0.00916921 0.00110702)
(-0.0555241 -0.0174544 0.00114808)
(-0.0739627 -0.00138257 0.00344564)
(-0.0645134 -0.0025731 0.00105817)
(-0.0654752 -0.00539932 0.00218634)
(-0.0604757 -0.0109006 0.00246587)
(-0.0453327 0.00164413 -0.0033446)
(-0.0535623 -0.0176979 0.0010865)
(-0.0401287 -0.0163263 0.000992073)
(-0.0623678 -0.00270261 0.000731169)
(-0.0461908 -0.0027288 -0.000941115)
(-0.053659 -0.0134743 0.00233469)
(-0.0459671 -0.0141175 0.00237412)
(-0.0281165 0.00133039 -0.00295323)
(-0.0382046 -0.0158548 0.00087518)
(-0.0259676 -0.0121933 0.000723363)
(-0.0438401 -0.00271635 -0.00111318)
(-0.0286037 -0.00235423 -0.00169225)
(-0.0382771 -0.0138081 0.00192836)
(-0.030921 -0.0127555 0.00170486)
(-0.0145621 0.000949397 -0.00241213)
(-0.0243078 -0.0116187 0.000632005)
(-0.0143544 -0.00822534 0.000516065)
(-0.0266929 -0.00227731 -0.00172204)
(-0.0148493 -0.0017816 -0.0013715)
(-0.0242073 -0.0114538 0.00135101)
(-0.0182497 -0.00998987 0.00113041)
(-0.00352966 0.000155843 -0.00195925)
(-0.0131168 -0.00780316 0.000451287)
(-0.00613555 -0.00575235 0.000359063)
(-0.013517 -0.00165935 -0.00127124)
(-0.00488745 -0.00168793 -0.000797372)
(-0.0130878 -0.00851061 0.00106832)
(-0.00888732 -0.007376 0.000950259)
(0.00106694 0.000702239 -0.000294642)
(-0.00537787 -0.00548947 0.000309973)
(-0.000570899 -0.00181196 0.000892535)
(-0.0036963 -0.00158314 -0.000728456)
(0.00180511 0.00110841 -0.000530714)
(-0.00549716 -0.00620451 0.00105477)
(-0.00116302 -0.00450302 0.00210438)
(-0.051722 0.0293617 0.00223633)
(0.00538825 0.0928357 -0.0121971)
(-0.0685643 0.0432934 0.00260712)
(-0.0102669 0.0576549 0.0127711)
(-0.0515991 0.0540967 0.010196)
(-0.0837753 0.25093 0.171782)
(-0.0695439 0.0713368 0.0139401)
(-0.0652314 -0.00866091 0.000791937)
(-0.0721597 0.0321771 0.000733961)
(-0.0541587 -0.0209732 -0.00359392)
(-0.0588044 0.0287396 0.00195824)
(-0.0598133 0.00734779 -0.00138135)
(-0.0567044 0.0349138 -0.00349491)
(-0.050024 0.00747666 -0.011651)
(-0.0525075 -0.0206122 0.000876236)
(-0.0500816 -0.024616 -0.00322534)
(-0.0269007 -0.0362792 -0.00172976)
(-0.0555533 -0.0074528 -0.00179833)
(-0.0497055 -0.0157617 -0.000668914)
(-0.0423957 -0.010563 -0.00961064)
(-0.0354335 -0.0198078 -0.00687422)
(-0.0376383 -0.019287 0.000893529)
(-0.02465 -0.0364531 -0.00121489)
(-0.014906 -0.0335122 -0.000112607)
(-0.0431582 -0.019575 0.000593537)
(-0.0366605 -0.020751 0.00159357)
(-0.029737 -0.0241267 -0.003271)
(-0.0244998 -0.0255468 -0.000927375)
(-0.0243825 -0.0145857 0.000708592)
(-0.0139344 -0.0327059 -1.56799e-05)
(-0.00917306 -0.0264969 0.000336614)
(-0.0302411 -0.020468 0.00178356)
(-0.0244814 -0.0191894 0.00200258)
(-0.0199315 -0.0250719 0.000277451)
(-0.015971 -0.0235165 0.00111575)
(-0.0135571 -0.0100037 0.000542379)
(-0.00860302 -0.0255302 0.000301679)
(-0.00519647 -0.0194983 0.000363307)
(-0.0190316 -0.0173291 0.00174564)
(-0.0145105 -0.0153635 0.00167392)
(-0.0122849 -0.0213678 0.00125213)
(-0.00921718 -0.0190136 0.00138639)
(-0.0058154 -0.00691382 0.00041316)
(-0.00474143 -0.0186417 0.000313422)
(-0.00204166 -0.0139333 0.000418692)
(-0.0102728 -0.0130916 0.00154513)
(-0.0070752 -0.0112551 0.00152888)
(-0.00635357 -0.0164268 0.00139325)
(-0.00406869 -0.0140665 0.00154417)
(-0.000622111 -0.00397668 0.000913238)
(-0.00177609 -0.0134586 0.000473908)
(-0.000495615 -0.0135164 6.93941e-05)
(-0.00431224 -0.00939434 0.0016805)
(-0.00102621 -0.00541981 0.00221694)
(-0.00215271 -0.0119172 0.00193394)
(0.000217426 -0.00923668 0.00181143)
(-0.0727182 0.0445215 0.00275441)
(0.00924034 0.120769 -0.0168697)
(-0.0924434 0.0382592 0.0029388)
(-0.195288 0.224698 0.422429)
(-0.0873004 0.0565411 0.0192901)
(-0.310514 0.0838868 0.577599)
(-0.071895 0.0461222 0.0088544)
(-0.0522984 -0.0204728 -0.00563426)
(-0.0930104 0.0288461 -0.000724463)
(-0.0439851 -0.0160892 -0.00865112)
(-0.0439227 0.0260761 -0.0153289)
(-0.0264055 0.000471354 -0.028781)
(-0.029068 0.0207842 -0.021035)
(-0.00799708 0.000476203 -0.0356078)
(-0.0228157 -0.0364775 -0.00272018)
(-0.0359178 -0.0198528 -0.00770015)
(0.00227425 -0.0335579 -0.00508892)
(-0.0193905 -0.0129323 -0.0228959)
(-0.0123329 -0.0218635 -0.0162575)
(-0.00244353 -0.0110879 -0.0283694)
(0.00550872 -0.0194581 -0.0214139)
(-0.0110698 -0.0341665 -0.00049159)
(0.00566906 -0.0342488 -0.00414921)
(0.0145576 -0.0328154 -0.00169019)
(-0.00996044 -0.0256638 -0.00955574)
(-0.00693957 -0.0272729 -0.00494163)
(0.00559572 -0.0234214 -0.0132953)
(0.00740148 -0.0254294 -0.00792416)
(-0.00636715 -0.027218 0.000169492)
(0.0147852 -0.0321422 -0.0012996)
(0.0115902 -0.0267405 -0.000328157)
(-0.00572047 -0.0269099 -0.00231567)
(-0.00413583 -0.025486 -0.000597557)
(0.0062942 -0.0255053 -0.00414901)
(0.00587592 -0.0245612 -0.00177041)
(-0.00369629 -0.0202068 0.000287006)
(0.0109266 -0.0259408 -0.000210801)
(0.00615863 -0.020861 4.00931e-05)
(-0.00320112 -0.0232882 0.000170191)
(-0.0021286 -0.020958 0.000618265)
(0.00468436 -0.0226859 -0.000533719)
(0.00384305 -0.0206403 0.000151598)
(-0.00144483 -0.0145447 0.000358304)
(0.00560045 -0.0201279 5.33283e-05)
(0.00226226 -0.0157273 0.00021264)
(-0.00132152 -0.0181669 0.000832569)
(-0.000487442 -0.0157204 0.00104394)
(0.00297123 -0.0181199 0.000437002)
(0.00224634 -0.0157461 0.000645022)
(-0.000468994 -0.0143225 -6.21778e-05)
(0.00176327 -0.0152061 0.00024811)
(-0.000369551 -0.0155406 -0.000785619)
(8.45227e-05 -0.0132371 0.00133861)
(0.000522119 -0.0089767 0.00169452)
(0.00162249 -0.0131907 0.000890303)
(0.00109186 -0.00786684 0.000660072)
(-0.0941179 0.0357475 0.00285527)
(0.0128095 0.108254 -0.0153678)
(-0.102512 0.0188713 0.00178323)
(-0.306948 0.0835016 0.584588)
(-0.0584276 0.0402593 0.0107878)
(-0.301248 0.0387754 0.611868)
(-0.0545614 0.0277918 0.0134661)
(-0.0426292 -0.01534 -0.0100948)
(-0.102011 0.0153241 -0.00307773)
(-0.0381131 -0.0030374 -0.0129639)
(-0.0103329 0.020669 -0.0272688)
(0.0127439 0.00419084 -0.0441564)
(-0.00222822 0.0170786 -0.0292966)
(0.0233489 0.00667694 -0.0487413)
(0.00545089 -0.0319722 -0.0062405)
(-0.0278252 -0.00476504 -0.0118802)
(0.0190713 -0.0123374 -0.00829049)
(0.0185398 -0.00614132 -0.0376525)
(0.0252926 -0.0137704 -0.0289985)
(0.0298039 -0.00108529 -0.041042)
(0.0364881 -0.00675367 -0.033061)
(0.0178619 -0.0313285 -0.00215548)
(0.023194 -0.0129028 -0.00705125)
(0.0334154 -0.014533 -0.00290343)
(0.0240667 -0.017849 -0.0193369)
(0.0233723 -0.0202373 -0.0118584)
(0.0341888 -0.010554 -0.0219051)
(0.0326958 -0.0127572 -0.0139657)
(0.0138787 -0.025658 -0.000525396)
(0.0332864 -0.0145547 -0.00228625)
(0.0249478 -0.0139928 -0.000652982)
(0.0196407 -0.0209963 -0.00680745)
(0.0168373 -0.0205662 -0.0034917)
(0.0270622 -0.0143407 -0.00786973)
(0.0232363 -0.0145857 -0.00427412)
(0.0074565 -0.0201948 -8.56163e-05)
(0.0235602 -0.0138669 -0.000485812)
(0.0136777 -0.0126585 -0.000105654)
(0.0129663 -0.019484 -0.00167749)
(0.0101861 -0.0179769 -0.000702766)
(0.0178663 -0.014444 -0.00211952)
(0.0139534 -0.013913 -0.000979633)
(0.0027486 -0.0153589 0.000104517)
(0.0124425 -0.0124396 -9.21845e-05)
(0.00515687 -0.0106364 0.000100591)
(0.00724537 -0.0161236 -0.000246717)
(0.00516124 -0.0141169 9.3962e-06)
(0.00987992 -0.0127921 -0.000444066)
(0.00693969 -0.011606 -0.000155643)
(-0.000358125 -0.0151837 -0.000869648)
(0.00418512 -0.0103514 0.000123176)
(-0.00035317 -0.0101104 -0.0012829)
(0.00334516 -0.0119043 9.001e-05)
(0.00136773 -0.00765791 0.000579446)
(0.00441059 -0.0097566 -5.52279e-05)
(0.00217705 -0.00518856 0.000602351)
(-0.103217 0.0164194 0.00200154)
(0.016857 -0.0676917 -0.0111039)
(-0.10368 0.0037518 0.0024389)
(-0.30219 0.0380236 0.613459)
(-0.0545907 0.0147587 0.0160039)
(-0.304553 -0.019079 0.615161)
(-0.0554638 0.00204102 0.0176116)
(-0.0379856 -0.00127212 -0.0132012)
(-0.104195 0.0050863 -0.00296036)
(-0.0402991 0.0124656 -0.0131956)
(-0.000157981 0.0100058 -0.030046)
(0.0269427 0.00573126 -0.0506251)
(-0.000975139 0.00525268 -0.0299268)
(0.0255979 0.00703717 -0.0508984)
(0.0200637 -0.0090712 -0.00909912)
(-0.0299128 0.0131535 -0.0120837)
(0.017778 0.0136234 -0.0094354)
(0.03469 0.00285686 -0.0435616)
(0.0417168 4.49428e-05 -0.0347582)
(0.0329593 0.00769248 -0.0437574)
(0.0400017 0.00734323 -0.034643)
(0.0345301 -0.0116941 -0.00311816)
(0.021764 0.0134064 -0.0081135)
(0.0326285 0.00951641 -0.00305126)
(0.0396504 -0.00234378 -0.0234235)
(0.0374207 -0.00430842 -0.0149977)
(0.0380599 0.00605423 -0.0233075)
(0.0360428 0.00440203 -0.0147989)
(0.0258322 -0.011923 -0.000788685)
(0.0324784 0.00877148 -0.00237318)
(0.0244755 0.00362382 -0.000751628)
(0.031548 -0.00590614 -0.00871748)
(0.0267634 -0.00709514 -0.00482433)
(0.0305215 0.00210794 -0.00854815)
(0.0259492 0.000322848 -0.00469565)
(0.0141827 -0.0112261 -0.000168535)
(0.0231426 0.0029458 -0.000520269)
(0.0133888 -0.000832833 -1.25842e-05)
(0.0207487 -0.00791496 -0.00249967)
(0.0161589 -0.0083224 -0.00124889)
(0.0201518 -0.00169251 -0.00238064)
(0.015763 -0.00303131 -0.00118075)
(0.00536434 -0.00971828 5.00504e-05)
(0.0121807 -0.00125124 -1.56162e-05)
(0.00505078 -0.0030362 5.28537e-05)
(0.0114849 -0.00834162 -0.000675754)
(0.00801777 -0.00793247 -0.000363461)
(0.0111612 -0.00401198 -0.000643511)
(0.00788074 -0.00441439 -0.000375192)
(-0.000352858 -0.00915535 -0.00131892)
(0.00412168 -0.0030979 8.79729e-05)
(-3.64646e-05 -0.00197435 -0.00124853)
(0.00512531 -0.00697674 -0.000280437)
(0.002448 -0.00475672 0.000482573)
(0.00500886 -0.00410502 -0.000293323)
(0.00261088 -0.00164884 0.000205728)
(-0.103693 0.00215668 0.00209908)
(0.0100599 -0.109252 -0.0174287)
(-0.102262 -0.00714389 0.00226428)
(-0.304008 -0.0178021 0.614285)
(-0.0563912 -0.00910542 0.0144787)
(-0.307704 -0.0622382 0.591966)
(-0.0613342 -0.0200279 0.013096)
(-0.0410085 0.014396 -0.0129084)
(-0.103096 -0.000251519 -0.00198451)
(-0.0518351 0.0281004 -0.0100042)
(-0.00492087 -0.000396626 -0.0300426)
(0.0190189 0.00701332 -0.0496475)
(-0.0153232 -0.00188256 -0.0279138)
(0.00523557 0.0110585 -0.0450836)
(0.0160438 0.0169323 -0.00828518)
(-0.0433062 0.0301955 -0.00908414)
(-0.00247562 0.0342359 -0.00560968)
(0.0244255 0.011991 -0.0410974)
(0.0312044 0.0140588 -0.0326432)
(0.00964611 0.0175803 -0.037687)
(0.0165064 0.0208189 -0.0281812)
(0.0308986 0.0121789 -0.00282343)
(0.00108655 0.0338246 -0.00446976)
(0.0116208 0.0260603 -0.00176569)
(0.0291563 0.013769 -0.0213016)
(0.0285286 0.0122909 -0.0133334)
(0.0161973 0.0203095 -0.018213)
(0.017037 0.0185988 -0.0107389)
(0.0231605 0.00557781 -0.00071888)
(0.0120305 0.0245993 -0.00132128)
(0.010217 0.0151119 -0.000354831)
(0.0237192 0.00988577 -0.00733479)
(0.0207025 0.00734011 -0.00393853)
(0.0148076 0.0155279 -0.00597327)
(0.0134092 0.0121631 -0.00288254)
(0.0126203 0.000480258 4.11909e-05)
(0.00971147 0.0138604 -0.000228816)
(0.00568982 0.00685614 -2.34992e-05)
(0.0161287 0.00443661 -0.00185886)
(0.0127233 0.00223701 -0.000833774)
(0.0107756 0.0085854 -0.00125327)
(0.00877334 0.005722 -0.000481204)
(0.00474832 -0.00218863 8.24616e-05)
(0.00517504 0.00601781 -1.0001e-05)
(0.0019886 0.00217435 3.45868e-05)
(0.00909384 0.000236615 -0.000402317)
(0.00640098 -0.000973813 -0.000205949)
(0.00636214 0.00312945 -0.000173913)
(0.00454796 0.00140356 -7.68145e-05)
(-0.000317262 -0.000981287 -0.00114063)
(0.00154732 0.00188629 4.5815e-05)
(-0.000180284 0.00375826 -0.000695582)
(0.00408287 -0.00149877 -0.000110234)
(0.00234287 -0.00131259 0.000323096)
(0.00288968 0.000461223 -0.000106855)
(0.00109377 0.000821168 0.000311245)
(-0.102015 -0.00883896 0.00259288)
(0.00532392 -0.0777238 -0.0168423)
(-0.0971157 -0.0114801 0.00217609)
(-0.310972 -0.0621658 0.5855)
(-0.0766604 -0.0225508 0.0127095)
(-0.206872 -0.190526 0.441925)
(-0.0947857 -0.0265972 0.0243959)
(-0.0543905 0.0290006 -0.00857162)
(-0.100195 -0.00276412 -0.000987477)
(-0.0729543 0.0295301 -0.00493185)
(-0.037596 0.00194287 -0.0206959)
(-0.0192769 0.0175169 -0.0356943)
(-0.0578357 0.00114947 -0.014937)
(-0.0429596 0.0193658 -0.0282195)
(-0.00648694 0.0352299 -0.0046422)
(-0.0674455 0.0309226 -0.00432293)
(-0.0360047 0.0304429 -0.00166538)
(-0.0155068 0.0232208 -0.0281194)
(-0.0068198 0.0260126 -0.0202498)
(-0.0360234 0.0245945 -0.0219057)
(-0.0260506 0.0261623 -0.0146582)
(0.0080613 0.0268408 -0.00125601)
(-0.0327343 0.0293434 -0.00109358)
(-0.0172525 0.0207365 0.000147547)
(-0.00443941 0.0240766 -0.0117878)
(-0.000520038 0.0220028 -0.00648502)
(-0.020211 0.0236468 -0.00773896)
(-0.0136608 0.0207887 -0.00344887)
(0.00782197 0.0156509 -9.0299e-05)
(-0.0156762 0.0193923 0.000299119)
(-0.00799055 0.0114854 0.000510416)
(0.00100159 0.0179986 -0.00297218)
(0.00241097 0.0145072 -0.000928078)
(-0.00945384 0.016989 -0.00114423)
(-0.00572267 0.0135569 0.000161776)
(0.00437038 0.00725437 0.00015675)
(-0.00721076 0.0104521 0.000484618)
(-0.00338667 0.00508866 0.000342611)
(0.00278431 0.0105952 5.6127e-05)
(0.00281888 0.00757119 0.000421207)
(-0.0032963 0.0100203 0.000632705)
(-0.00159392 0.00726766 0.000753184)
(0.00141082 0.00246993 0.000165686)
(-0.00301092 0.00446953 0.000304003)
(-0.00141067 0.00192517 0.000159194)
(0.00239019 0.0047432 0.000485555)
(0.00179031 0.00282754 0.000435366)
(-0.000657969 0.00464535 0.000679209)
(-0.000204101 0.00293024 0.000552136)
(-0.000198231 0.00405251 -0.00056913)
(-0.00128731 0.00177739 0.000144665)
(-0.000206768 0.00290794 0.000275523)
(0.00115186 0.00161809 0.000400413)
(0.000771828 0.000972413 0.000311489)
(-9.21995e-05 0.00182291 0.000434634)
(8.0453e-05 0.00119983 0.0002455)
(-0.0955748 -0.0100539 0.00232887)
(0.00518637 0.00222189 -0.00497226)
(-0.0975944 -0.00287138 -0.00155612)
(-0.0952385 -0.2254 0.196593)
(-0.0850416 -0.0395426 0.022663)
(0.00392652 0.0132983 0.051552)
(-0.0993741 -0.00358355 0.0145632)
(-0.0764282 0.0286332 -0.00293873)
(-0.102783 -0.00248024 -0.00219397)
(-0.0932263 -0.00169323 -0.00470323)
(-0.0787586 -0.00331376 -0.00208319)
(-0.0701942 0.015659 -0.0113533)
(-0.10371 -0.000987869 0.0106763)
(-0.0886256 0.00458466 -0.000882359)
(-0.0402969 0.0282453 -0.000560021)
(-0.0886141 -0.00171862 -0.00481411)
(-0.0558749 -0.00188665 -0.00469686)
(-0.0592625 0.0206684 -0.00959984)
(-0.0466002 0.0210064 -0.00583439)
(-0.0838586 0.00476292 -0.000921004)
(-0.0523284 0.00417302 0.00041937)
(-0.0203832 0.0186002 0.000626371)
(-0.0517961 -0.00188913 -0.00458678)
(-0.029047 -0.00166127 -0.00362198)
(-0.0359773 0.0184264 -0.00225911)
(-0.0263532 0.0157298 -0.000288995)
(-0.0485592 0.00393388 0.000618154)
(-0.0270536 0.00297658 0.000653858)
(-0.00974221 0.0100064 0.000664814)
(-0.0265748 -0.00161956 -0.00345346)
(-0.0133301 -0.00115382 -0.00231612)
(-0.0188996 0.0126576 0.000686993)
(-0.0127807 0.0099668 0.000967565)
(-0.0247083 0.00270073 0.000614078)
(-0.0117539 0.00197773 5.20426e-05)
(-0.00417647 0.00430208 0.00038441)
(-0.0119681 -0.00108875 -0.00213553)
(-0.00522503 -0.000615189 -0.00113331)
(-0.00837244 0.00735122 0.000995579)
(-0.00512581 0.00523826 0.000765795)
(-0.0104479 0.00170557 2.01052e-05)
(-0.00388052 0.00114085 -0.000149493)
(-0.00168317 0.00163691 0.000153603)
(-0.00461926 -0.000563042 -0.000996233)
(-0.00185992 -0.00018374 -0.000466286)
(-0.00304059 0.00333353 0.000660602)
(-0.00174733 0.00208308 0.000461695)
(-0.0033362 0.000931248 -7.95869e-05)
(-0.00122286 0.000495012 4.88645e-05)
(-0.000315579 0.00218176 0.000309563)
(-0.00152928 -0.000128409 -0.000445652)
(0.000407263 -0.000371725 -8.35172e-05)
(-0.00105001 0.00139877 0.000369835)
(-9.36219e-05 0.00116768 0.000208148)
(-0.00101928 0.000404803 4.95174e-05)
(0.000365404 -0.000296796 -0.000385084)
(-0.0509606 0.00455172 0.00661233)
(-0.00955808 0.0492737 0.0138111)
(-0.0442241 0.0429505 0.00418854)
(0.0046885 -0.00390551 0.00914081)
(-0.0429793 0.00660508 0.00020471)
(-0.00626369 0.0517669 0.00253272)
(-0.0421382 0.0470402 0.000320114)
(-0.0740359 -0.000447634 0.00439501)
(-0.0551764 0.0214155 0.00124463)
(-0.0621581 0.00836201 0.00110213)
(-0.0504124 0.00548703 0.000399873)
(-0.0737732 0.00088225 0.000590672)
(-0.0524444 0.0250614 -0.00075555)
(-0.0604864 0.0116656 -0.000537418)
(-0.0645345 -0.00220731 0.00176408)
(-0.0617366 -0.00298238 0.000332496)
(-0.0580957 -0.00798822 0.000673277)
(-0.0737825 0.000243376 0.000583277)
(-0.0652511 -0.00131605 0.00033754)
(-0.0606565 -0.000571422 -0.000476257)
(-0.0574913 -0.0059458 -0.000148444)
(-0.0462366 -0.00243251 -0.000292137)
(-0.0521424 -0.0110811 0.000824801)
(-0.045149 -0.0120049 0.00097918)
(-0.0630883 -0.00156137 0.000304566)
(-0.0467977 -0.00194938 0.000132211)
(-0.0518987 -0.00959443 9.867e-05)
(-0.0450943 -0.0108387 0.000267789)
(-0.0285889 -0.0021448 -0.00117968)
(-0.0382065 -0.0121905 0.00089829)
(-0.0310829 -0.0115343 0.000884309)
(-0.0443964 -0.00199365 0.00011079)
(-0.0287714 -0.00182777 2.07781e-05)
(-0.038344 -0.0113839 0.000298462)
(-0.0312746 -0.0109399 0.00033746)
(-0.0147644 -0.0015754 -0.000957332)
(-0.0246351 -0.0104367 0.00077128)
(-0.0187156 -0.00921398 0.000738394)
(-0.0268125 -0.00177991 1.17454e-05)
(-0.0147035 -0.00134641 -6.34905e-06)
(-0.0248795 -0.00999955 0.00031417)
(-0.0189366 -0.00883832 0.000311315)
(-0.00488051 -0.00165941 -0.000481471)
(-0.0135666 -0.00762155 0.00076945)
(-0.00923003 -0.00666781 0.000752323)
(-0.0134325 -0.00120512 -8.1811e-06)
(-0.00449716 -0.00135385 2.10106e-05)
(-0.0137335 -0.00723113 0.000344749)
(-0.00932596 -0.00630013 0.000333702)
(0.00184033 0.00117011 -0.000320894)
(-0.0056709 -0.00561678 0.000846762)
(-0.00123666 -0.00421253 0.00192496)
(-0.00326546 -0.00121188 2.55696e-05)
(0.00173803 0.00104069 1.79645e-05)
(-0.00563385 -0.00515109 0.00035498)
(-0.00129565 -0.00296489 0.000103529)
(-0.0544964 0.0609164 0.00227978)
(-0.179612 0.509999 0.109593)
(-0.0855761 0.0694127 -0.00722847)
(-0.00680527 0.0638458 0.00238214)
(-0.055663 0.0613584 -0.00196877)
(-0.310824 0.59822 -0.00170728)
(-0.0698109 0.0532583 -0.00944607)
(-0.00109708 -0.0051192 0.0020485)
(-0.002068 -0.0101776 0.00163585)
(0.000378961 -0.00811703 0.00191037)
(-0.00454067 -0.00752973 0.000510138)
(-0.00120161 -0.00390872 0.000118217)
(-0.00180579 -0.0090314 0.000596568)
(0.00115782 -0.00568464 0.000135955)
(-0.0481625 0.000639226 -0.045717)
(-0.177754 -0.00494235 0.211603)
(0.0613009 0.0144202 -0.0896626)
(-0.18699 0.232483 -0.0342702)
(0.053441 -0.0576649 -0.0178807)
(0.378323 0.000674142 -0.000114057)
(0.245119 -0.0151896 -0.0279473)
(0.000606663 -0.00807909 0.00181119)
(0.00189215 -0.0106929 0.000683613)
(0.00145747 -0.0068672 0.000707966)
(0.00101139 -0.00963593 0.000388253)
(0.00121719 -0.00532581 6.21804e-05)
(0.00207184 -0.0091189 0.000215041)
(0.00204372 -0.00413733 1.17428e-05)
(0.093685 0.0219503 -0.0977268)
(-0.189985 -0.0217994 0.232391)
(0.0959697 0.0141412 -0.099864)
(0.379153 0.000791571 -0.000104044)
(0.28992 0.00304526 -0.032419)
(0.380614 7.09102e-05 -6.95312e-05)
(0.294592 0.00530916 -0.0349044)
(0.00159461 -0.00675634 0.000677627)
(0.00466414 -0.00781496 -0.000159138)
(0.00267702 -0.00449128 0.000789226)
(0.00373554 -0.00790427 -3.72532e-06)
(0.00220179 -0.00406104 1.02218e-05)
(0.0046309 -0.00670979 -0.000111487)
(0.00341485 -0.00279028 -8.57992e-07)
(0.0940517 0.00867558 -0.0999828)
(-0.194089 -0.0389833 0.23593)
(0.0931201 -0.00090295 -0.0999268)
(0.380634 0.000189452 -6.8987e-05)
(0.29442 0.00304128 -0.0354549)
(0.380637 -0.000139502 -7.07481e-05)
(0.294123 0.000307836 -0.0355429)
(0.00277496 -0.00430526 0.000779195)
(0.00541911 -0.0034346 -0.000336959)
(0.0028049 -0.00155575 0.000684461)
(0.00546754 -0.00482107 -0.000182504)
(0.00350237 -0.00269046 -1.05987e-06)
(0.00521265 -0.00305068 -0.000149683)
(0.00341847 -0.00116695 4.99251e-07)
(0.0936303 -0.00565729 -0.100313)
(-0.183325 -0.0544341 0.219204)
(0.0909607 -0.0121667 -0.097759)
(0.380611 -2.15312e-05 -7.05133e-05)
(0.29337 -0.00158705 -0.0352653)
(0.379231 -0.000650953 -9.99197e-05)
(0.288315 0.00180983 -0.032769)
(0.00269998 -0.00139434 0.000692256)