/*--------------------------------*- C++ -*----------------------------------*\
| =========                 |                                                 |
| \\      /  F ield         | OpenFOAM: The Open Source CFD Toolbox           |
|  \\    /   O peration     | Version:  2.4.0                                 |
|   \\  /    A nd           | Web:      www.OpenFOAM.org                      |
|    \\/     M anipulation  |                                                 |
\*---------------------------------------------------------------------------*/
FoamFile
{
    version     2.0;
    format      ascii;
    class       volScalarField;
    location    "80";
    object      epsilon;
}
// * * * * * * * * * * * * * * * * * * * * * * * * * * * * * * * * * * * * * //

dimensions      [0 2 -3 0 0 0 0];

internalField   nonuniform List<scalar> 
43096
(
1.8365e-06
1.5195e-05
2.10566e-05
1.63304e-05
1.02461e-05
5.32669e-06
3.15107e-06
1.41523e-06
2.40822e-05
0.000193589
0.000276688
0.000203128
0.0001209
7.28169e-05
4.79749e-05
3.14577e-05
7.16702e-05
0.00135989
0.00152336
0.000840299
0.000392382
0.000190817
0.000122073
0.000122567
0.000341234
0.00456752
0.00395925
0.00201384
0.000861787
0.000359047
0.000201108
0.00023182
0.000456766
0.00664328
0.00576271
0.00292601
0.00121255
0.000471907
0.000240458
0.000273656
0.000366008
0.00663114
0.00571352
0.00283493
0.00114216
0.000435185
0.000218325
0.000254525
0.000407928
0.00464942
0.00378643
0.00175456
0.000691107
0.000269403
0.0001464
0.000176136
0.000113029
0.00171304
0.00140281
0.000624404
0.000246446
0.000106256
6.37212e-05
6.32357e-05
6.39929e-06
0.000131295
0.000195198
0.000165335
0.000114292
7.30266e-05
4.40772e-05
2.49008e-05
0.000283962
0.00073618
0.000390153
0.000186015
9.0521e-05
5.42845e-05
6.30052e-05
6.41335e-05
0.121295
0.00452895
0.00146388
0.000531532
0.000212622
0.000105211
0.000151856
0.000336753
0.121881
0.0063248
0.00256082
0.000959049
0.000352683
0.000151201
0.000208478
0.000583182
0.128823
0.00652933
0.00280634
0.00110676
0.000410218
0.000167431
0.000218001
0.000631899
0.130194
0.00633632
0.0025577
0.000945753
0.000338632
0.000140566
0.00019977
0.000616982
0.124152
0.00460565
0.00150084
0.000525502
0.000191687
8.69207e-05
0.000129308
0.000475323
0.0393339
0.00165206
0.000761901
0.000295633
0.00011572
5.18157e-05
4.52548e-05
0.000114487
3.11671e-06
0.000145318
0.000237703
0.000204402
0.000142416
9.15584e-05
5.63444e-05
3.38778e-05
0.000334496
0.000736128
0.000390098
0.000185975
9.04885e-05
5.42388e-05
6.29049e-05
8.34269e-05
0.128346
0.0045288
0.00146377
0.000531465
0.000212574
0.000105143
0.000151597
0.000486963
0.0100255
0.00632469
0.00256067
0.000958943
0.000352618
0.000151123
0.000208161
0.000814586
0.0100071
0.00652922
0.00280618
0.00110664
0.000410144
0.000167351
0.000217692
0.000875985
0.0100077
0.0063363
0.0025576
0.000945655
0.000338566
0.000140494
0.000199477
0.000859562
0.0100407
0.00460557
0.00150075
0.000525434
0.000191639
8.68694e-05
0.000129121
0.000682075
0.101256
0.00202809
0.000860833
0.000324916
0.000125958
5.70361e-05
5.25667e-05
0.000167146
6.0454e-06
0.000121204
0.000179408
0.000152679
0.000105533
6.72786e-05
4.06848e-05
2.25022e-05
0.000261852
0.000227869
0.00019423
0.000118333
6.43955e-05
3.76588e-05
3.11872e-05
3.70828e-05
0.0352634
0.00173326
0.000878327
0.00038877
0.000171183
8.10059e-05
6.71257e-05
0.000148199
0.115225
0.00363033
0.00183448
0.000787174
0.000315362
0.000131764
9.69727e-05
0.000255577
0.119432
0.00425869
0.0022494
0.00099211
0.000393311
0.000156556
0.000107125
0.00028171
0.119631
0.00412128
0.00210905
0.000897496
0.000347943
0.000136986
9.68251e-05
0.000268862
0.114319
0.00286726
0.00133019
0.000541099
0.000210343
8.59768e-05
6.62104e-05
0.000193461
0.0189399
0.00089719
0.000518413
0.000222363
9.07684e-05
4.09694e-05
3.0804e-05
5.31477e-05
1.33895e-05
2.07323e-05
0.000136993
6.05693e-06
0.000106868
0.00020955
7.93437e-05
2.1067e-05
0.000152998
0.000219895
0.000121344
0.00017882
9.26285e-05
9.44064e-05
1.47788e-05
0.00021874
0.000176434
0.000179566
0.0001593
8.7234e-05
7.54384e-05
9.50944e-06
0.00016601
0.000109926
0.000152805
0.000112125
6.07365e-05
4.82216e-05
6.60348e-06
0.000102085
6.72014e-05
0.000105616
7.21108e-05
3.73879e-05
2.96508e-05
3.39003e-06
6.27229e-05
4.35581e-05
6.73281e-05
4.40438e-05
2.39961e-05
2.05467e-05
1.61215e-06
4.08858e-05
2.7965e-05
4.07175e-05
2.54225e-05
1.84706e-05
1.71363e-05
1.01636e-07
2.51889e-05
9.21455e-07
2.25164e-05
1.10578e-06
1.50274e-05
2.54537e-05
0.000171691
6.19265e-05
0.000891809
0.000261679
0.000198679
0.0132985
0.000679128
0.000279157
0.00101527
0.00129698
0.000227983
0.000228483
0.000564746
0.000524045
0.000216697
0.00122746
0.000797635
0.000194324
0.000160348
0.000403086
0.000313741
0.000130619
0.000714972
0.000385325
0.000118406
8.99979e-05
0.000216158
0.000157254
7.80035e-05
0.000344303
0.000188829
6.44467e-05
4.91039e-05
0.00010579
7.70598e-05
5.08297e-05
0.000172364
0.000116572
3.77027e-05
3.25041e-05
5.54909e-05
4.71394e-05
3.43134e-05
0.000111708
0.000107222
3.12464e-05
3.26221e-05
4.68457e-05
5.39916e-05
1.45966e-06
0.000107044
9.15765e-06
3.71917e-05
3.49204e-05
8.10086e-05
0.000548106
0.00119735
0.000274048
0.00391131
0.0352673
0.00241205
0.112938
0.00456895
0.00162758
0.0041035
0.00388598
0.00173361
0.00130821
0.00272554
0.00201512
0.000939702
0.0035648
0.00204838
0.000878554
0.000593883
0.00128716
0.000888398
0.0004397
0.0018258
0.000893166
0.000388927
0.000264223
0.000556724
0.000375556
0.000209361
0.000793234
0.000374483
0.000171283
0.000117777
0.000234869
0.00015811
0.000126929
0.00033756
0.00020003
8.10765e-05
6.56562e-05
0.00010424
8.18277e-05
0.000120989
0.000192562
0.000209657
6.72477e-05
8.54845e-05
8.21223e-05
0.000107785
1.07813e-05
0.000220314
2.17211e-05
0.000148742
0.00153673
0.000214919
0.00597008
0.00434956
0.00046444
0.00616506
0.11523
0.00576323
0.118903
0.00628055
0.00431111
0.00651028
0.00612355
0.00363096
0.00273409
0.00409896
0.00311992
0.00225085
0.00562654
0.00316407
0.00183486
0.00124072
0.00210445
0.0014489
0.000969035
0.00285433
0.00133647
0.00078741
0.000510282
0.000909074
0.000594099
0.000398931
0.00118549
0.000518732
0.000315507
0.000204781
0.000360902
0.000232522
0.000208954
0.000464573
0.00025044
0.000131858
9.82263e-05
0.000146514
0.000107727
0.00021944
0.000238981
0.000257227
9.71251e-05
0.000129154
0.000103965
0.000137461
2.28197e-05
0.000272252
2.63557e-05
0.000256451
0.00628336
0.000276363
0.00715982
0.00627717
0.000352219
0.00629618
0.119444
0.00643606
0.119734
0.00642616
0.00626778
0.00669354
0.00633486
0.00425984
0.00326483
0.00426034
0.00327027
0.00324013
0.00581871
0.00323085
0.00224987
0.00155623
0.00225187
0.00155547
0.0013665
0.00290759
0.00133631
0.000992383
0.000646172
0.000989336
0.000642255
0.000527431
0.00117985
0.000505817
0.000393475
0.000250997
0.000389779
0.000247544
0.000252055
0.000450597
0.000236721
0.000156661
0.00011293
0.000153901
0.000110339
0.00025765
0.00022539
0.000245015
0.000107272
0.000141372
0.00010492
0.000139256
2.63638e-05
0.000260544
2.36732e-05
0.00028261
0.0071823
0.000280597
0.00716718
0.00624754
0.000428258
0.00484035
0.119614
0.00629339
0.11622
0.00583095
0.00622845
0.00507327
0.00455665
0.00412167
0.00313877
0.00370969
0.00278914
0.0031559
0.00415632
0.00221473
0.0021094
0.00144517
0.00185717
0.00124224
0.00129641
0.00194494
0.00087632
0.000897752
0.000581421
0.000772884
0.000491969
0.000488638
0.000767308
0.000333752
0.000348113
0.000221495
0.000296694
0.000187925
0.000228828
0.000296303
0.000165892
0.000137084
9.99223e-05
0.000117883
8.61476e-05
0.000238641
0.000158769
0.000179026
9.69573e-05
0.000130504
8.56799e-05
0.000117428
2.28038e-05
0.000191541
1.675e-05
0.000269724
0.00710907
0.000243873
0.00616912
0.00445177
0.000150909
0.00197804
0.114321
0.00475213
0.0410979
0.00276501
0.00416033
0.00211579
0.00186268
0.00286746
0.0021205
0.00196784
0.0014522
0.00200901
0.00169828
0.000859958
0.00133043
0.00090221
0.000935992
0.000613953
0.000793448
0.000749855
0.000335281
0.000541308
0.00035467
0.000376277
0.000242077
0.000303664
0.000292331
0.000138376
0.000210475
0.000136867
0.000146903
9.5683e-05
0.000152703
0.000123834
7.73969e-05
8.60467e-05
6.60313e-05
6.23094e-05
4.86142e-05
0.00016448
7.3836e-05
7.52143e-05
6.62985e-05
8.97841e-05
4.94326e-05
6.47665e-05
1.52773e-05
7.71963e-05
5.11624e-06
0.00019412
0.00581424
0.000120313
0.00129839
0.00159998
3.62299e-06
9.52106e-05
0.0189416
0.00104695
9.49023e-05
0.0013059
0.00153281
9.94415e-05
8.43583e-05
0.000897325
0.000741333
0.0013942
0.00124884
0.000715096
7.84708e-05
4.05345e-05
0.000518573
0.000348835
0.00115613
0.000616832
0.000282504
3.64652e-05
1.68486e-05
0.000222476
0.000143536
0.000549096
0.000265011
0.000118591
1.50511e-05
6.98801e-06
9.08322e-05
5.99436e-05
0.000234648
0.000119495
6.68229e-05
6.29612e-06
3.40206e-06
4.10008e-05
3.22467e-05
0.0001074
6.69819e-05
6.25134e-05
3.15812e-06
2.29219e-06
3.08363e-05
3.67818e-05
6.2949e-05
6.03729e-05
3.92701e-06
2.16817e-06
1.80349e-07
5.33049e-05
0.000371372
6.04775e-05
3.70748e-06
0.000115119
0.000226243
0.000128995
3.12244e-06
0.000122104
0.000243272
0.000154583
0.000194167
0.000159267
0.000149102
0.000145303
0.000236022
0.00017496
0.000163547
0.000172129
0.000124547
0.000103767
0.00023769
0.000212539
0.000136071
0.000113433
0.00012109
7.85647e-05
6.1191e-05
0.000204374
0.000150843
8.53168e-05
6.64818e-05
7.80523e-05
4.61258e-05
3.62693e-05
0.000142384
9.77975e-05
4.99062e-05
3.93665e-05
4.77066e-05
2.92023e-05
2.54101e-05
9.15296e-05
6.07842e-05
3.18088e-05
2.79581e-05
2.79299e-05
2.41287e-05
2.46613e-05
5.63196e-05
3.76842e-05
2.70932e-05
2.82201e-05
1.22679e-06
2.29252e-05
2.98889e-05
3.38548e-05
1.61426e-06
2.83016e-05
4.69848e-05
0.000440019
0.0317746
0.00186975
0.000334422
0.000622432
0.0917204
0.00302657
4.12341e-05
0.000162872
0.00169283
8.35135e-05
6.79318e-05
0.00023198
0.00584921
0.00773676
0.121708
0.0118643
0.128348
0.01153
0.0100404
0.0117298
0.00113903
0.000498238
0.00309027
0.000487163
0.00288263
0.000707326
0.00268948
0.0128068
0.128364
0.013079
0.0100255
0.0108037
0.0100069
0.0106691
0.00316749
0.00062093
0.00358284
0.000814683
0.00271406
0.000863298
0.00287981
0.0131775
0.130668
0.013193
0.010007
0.0106804
0.0100076
0.0106954
0.00359071
0.000629017
0.00357737
0.000876029
0.00287793
0.000873982
0.00287926
0.0130802
0.124204
0.0128152
0.0100076
0.0107076
0.0100264
0.010846
0.00356511
0.00056956
0.00310548
0.000859583
0.00287304
0.000801408
0.00270319
0.0118927
0.120746
0.00800112
0.0100406
0.01176
0.12839
0.0116171
0.00302154
0.00029498
0.000964427
0.000682059
0.0026688
0.000436535
0.00263586
0.00242036
0.000111527
0.00151588
0.101257
0.00365909
0.000119602
0.00211205
0.00121144
0.00161738
0.00141387
0.00202809
0.00142817
0.0022094
0.00181339
0.00048495
0.00130456
0.000683089
0.000860875
0.000542713
0.00165736
0.000853025
0.000187627
0.000607734
0.00029176
0.000324947
0.000205461
0.000756736
0.000369873
7.65168e-05
0.000258549
0.000131852
0.000125976
8.35585e-05
0.000327516
0.000169465
4.27433e-05
0.000118573
7.47124e-05
5.70444e-05
4.78915e-05
0.000152295
0.000100218
6.19042e-05
7.0199e-05
7.06651e-05
5.25788e-05
7.69162e-05
9.53755e-05
0.000114267
0.00130748
7.19485e-05
4.56057e-06
0.000167054
0.00507964
0.000121628
9.07589e-06
0.00012209
0.000243327
0.000154571
6.41252e-06
0.000115028
0.000226411
0.000128945
0.000235964
0.000174941
0.000163526
0.000131147
0.000194038
0.000159213
0.000149053
0.000212475
0.000136053
0.000113414
0.000194997
0.000172012
0.000124501
0.000103727
0.000150788
8.53027e-05
6.64676e-05
0.000165147
0.000121004
7.85281e-05
6.11601e-05
9.77568e-05
4.98949e-05
3.93547e-05
0.000114142
7.79954e-05
4.6096e-05
3.62421e-05
6.07528e-05
3.17966e-05
2.79422e-05
7.29194e-05
4.76686e-05
2.91708e-05
2.53756e-05
3.76558e-05
2.70741e-05
2.81887e-05
4.39998e-05
2.79109e-05
2.40888e-05
2.46241e-05
1.61216e-06
2.82412e-05
4.69303e-05
2.48492e-05
1.22627e-06
2.2905e-05
2.98502e-05
0.000622404
0.0917197
0.0030265
0.000284083
0.000439928
0.0317726
0.00186953
6.78555e-05
0.000231578
0.00583849
6.39814e-05
4.11719e-05
0.000162514
0.00168919
0.01153
0.0100404
0.0117299
0.121316
0.00773643
0.121707
0.0118641
0.00287853
0.000706518
0.00268535
0.000335591
0.001136
0.00049676
0.00308163
0.010804
0.0100069
0.0106693
0.12188
0.0128067
0.128363
0.0130789
0.00271036
0.000862493
0.00287581
0.000581232
0.00315879
0.000619195
0.00357404
0.0106808
0.0100076
0.0106957
0.128823
0.0131773
0.130664
0.013193
0.00287434
0.000873205
0.00287526
0.00062983
0.00358198
0.000627258
0.00356859
0.0107079
0.0100264
0.0108462
0.130194
0.0130802
0.124198
0.0128152
0.00286943
0.000800693
0.00269905
0.000614915
0.00355637
0.000567851
0.00309685
0.0117601
0.128388
0.0116171
0.124144
0.0118926
0.120736
0.00800095
0.00266508
0.000436182
0.00263192
0.000473547
0.0030131
0.000293981
0.000961749
0.00365913
0.000120337
0.00211215
0.0393327
0.0024203
0.000111559
0.00151583
0.00142813
0.00220945
0.00181333
0.001652
0.00121135
0.00161728
0.00141351
0.000542677
0.00165731
0.000852957
0.000761791
0.000484858
0.00130419
0.000682786
0.000205437
0.000756678
0.000369818
0.000295549
0.000187568
0.000607439
0.000291596
8.35408e-05
0.000327468
0.000169414
0.000115669
7.64826e-05
0.000258391
0.000131767
4.78649e-05
0.000152252
0.000100156
5.17783e-05
4.27106e-05
0.000118489
7.4656e-05
7.68391e-05
9.53184e-05
0.00011415
4.51783e-05
6.17767e-05
7.01408e-05
7.05476e-05
0.00507012
0.000121526
9.05852e-06
0.000114006
0.00130432
7.17987e-05
4.55285e-06
0.000106709
0.000209694
7.92354e-05
1.74153e-06
1.48881e-05
2.09816e-05
0.000136689
0.000178593
9.25478e-05
9.43352e-05
1.44304e-05
2.27229e-05
0.000152727
0.000219724
0.000159092
8.71684e-05
7.53782e-05
1.94974e-05
1.68236e-05
0.000218578
0.000176346
0.000111966
6.06828e-05
4.81743e-05
1.60668e-05
1.15498e-05
0.000165931
0.000109891
7.20005e-05
3.73457e-05
2.96116e-05
9.29045e-06
6.18275e-06
0.000102052
6.71904e-05
4.3965e-05
2.39549e-05
2.05043e-05
5.8e-06
3.53099e-06
6.27127e-05
4.3556e-05
2.53714e-05
1.84205e-05
1.70891e-05
2.82086e-06
1.5037e-06
4.08853e-05
2.79627e-05
1.10293e-06
1.49753e-05
2.53751e-05
1.39257e-06
1.0942e-07
2.51882e-05
9.21864e-07
0.00019854
0.0132983
0.0006789
2.21102e-05
0.000171369
6.21655e-05
0.000891292
0.000228376
0.000564569
0.000523886
0.000193263
0.000278948
0.00101478
0.00129636
0.000160259
0.000402936
0.00031361
0.000276431
0.000216568
0.00122688
0.000797132
8.99309e-05
0.000216041
0.00015716
0.000202948
0.000130562
0.000714513
0.00038505
4.90528e-05
0.000105711
7.69939e-05
0.000120788
7.79848e-05
0.000344061
0.000188725
3.24485e-05
5.54258e-05
4.7071e-05
7.27411e-05
5.08245e-05
0.000172279
0.000116545
3.2536e-05
4.67394e-05
5.38325e-05
4.7913e-05
3.43053e-05
0.000111695
0.000107165
3.4809e-05
8.06232e-05
0.00054539
3.13957e-05
1.45981e-06
0.000106984
9.12455e-06
0.0024116
0.112937
0.0045683
7.15605e-05
0.00119677
0.000291174
0.00390996
0.00130795
0.00272507
0.00201475
0.00135922
0.00162681
0.00410217
0.00388457
0.000593694
0.00128686
0.000888152
0.00152247
0.000939114
0.00356346
0.00204734
0.00026409
0.000556512
0.000375393
0.000839639
0.000439373
0.00182479
0.000892535
0.00011769
0.000234736
0.000158007
0.000392004
0.000209231
0.000792637
0.000374193
6.55654e-05
0.000104148
8.17283e-05
0.000190612
0.00012689
0.000337298
0.000199927
8.52208e-05
8.1953e-05
0.000107448
0.0001219
0.000120914
0.000192474
0.00020946
0.00153113
0.000213788
0.00594933
0.000122223
1.07347e-05
0.000220074
2.1616e-05
0.00576235
0.118898
0.00627915
0.000333687
0.00434804
0.000465254
0.00616125
0.00273362
0.00409804
0.00311934
0.00456578
0.00430954
0.00650668
0.0061212
0.00124042
0.00210401
0.00144855
0.00395747
0.00224977
0.00562439
0.0031626
0.000510081
0.000908805
0.000593886
0.00201255
0.000968374
0.00285292
0.0013356
0.000204658
0.00036073
0.000232391
0.000861022
0.000398631
0.00118465
0.000518316
9.81126e-05
0.000146404
0.000107616
0.000358659
0.000208847
0.000464193
0.000250282
0.00012877
0.000103782
0.00013707
0.000200805
0.000219251
0.000238841
0.000256921
0.0062627
0.000275031
0.00713796
0.00023109
2.26998e-05
0.000271864
2.62277e-05
0.00643386
0.119751
0.00642431
0.000457829
0.00627266
0.000359502
0.0062941
0.00326417
0.00425942
0.00326971
0.00663876
0.00626531
0.00669127
0.00633263
0.00155586
0.00225142
0.00155511
0.00576003
0.00323864
0.00581661
0.00322931
0.000645952
0.000989053
0.000642033
0.00292427
0.00136563
0.00290612
0.00133538
0.000250856
0.000389606
0.000247402
0.00121154
0.000527017
0.00117897
0.000505367
0.000112812
0.000153789
0.000110231
0.000471406
0.000251907
0.000450187
0.000236554
0.000140993
0.000104749
0.000138858
0.000240106
0.000257383
0.000225245
0.000244695
0.00716128
0.000279268
0.00714547
0.000272754
2.62248e-05
0.000260119
2.35533e-05
0.00629293
0.116224
0.00583083
0.000403249
0.00624692
0.00042952
0.00484058
0.00313843
0.0037095
0.00278888
0.00662969
0.00622639
0.00507317
0.00455527
0.00144484
0.00185686
0.00124196
0.00571105
0.0031544
0.00415491
0.0022135
0.000581204
0.00077264
0.000491759
0.00283319
0.00129551
0.00194376
0.000875579
0.000221361
0.000296536
0.000187801
0.00114115
0.000488211
0.000766613
0.000333435
9.98133e-05
0.000117787
8.60574e-05
0.000434687
0.000228684
0.000296021
0.000165781
0.000130149
8.55353e-05
0.000117075
0.000217999
0.000238383
0.000158668
0.000178744
0.00708802
0.000242656
0.00614825
0.000253668
2.26804e-05
0.00019116
1.66587e-05
0.0047519
0.0410962
0.00276481
0.000408231
0.00445192
0.000159853
0.00197782
0.00212026
0.00196765
0.001452
0.00464898
0.00415899
0.00211546
0.00186181
0.000901964
0.000935782
0.00061376
0.00378473
0.00200784
0.00169745
0.000859351
0.000354496
0.000376112
0.000241942
0.00175326
0.000792768
0.000749307
0.000335002
0.000136767
0.000146803
9.56071e-05
0.000690371
0.000303381
0.000292091
0.000138284
6.59537e-05
6.22541e-05
4.85616e-05
0.000269062
0.000152609
0.000123759
7.73687e-05
8.95189e-05
4.93555e-05
6.45769e-05
0.00014616
0.000164256
7.38128e-05
7.50888e-05
0.00579484
0.00011972
0.00129349
0.000175459
1.51948e-05
7.70331e-05
5.09135e-06
0.00104683
9.493e-05
0.00130573
0.000130841
0.00159976
3.6393e-06
9.51334e-05
0.000741168
0.00139398
0.00124836
0.00171256
0.00153206
9.93443e-05
8.42448e-05
0.000348687
0.00115565
0.000616425
0.00140191
0.000714569
7.8352e-05
4.04668e-05
0.000143443
0.000548723
0.00026477
0.00062385
0.000282277
3.63951e-05
1.68164e-05
5.98911e-05
0.000234434
0.000119345
0.000246188
0.000118519
1.50169e-05
6.97371e-06
3.22051e-05
0.000107264
6.68579e-05
0.000106138
6.6805e-05
6.28096e-06
3.39462e-06
3.66674e-05
6.28274e-05
6.01529e-05
6.36219e-05
6.2421e-05
3.14978e-06
2.28573e-06
0.000369361
6.02521e-05
3.68796e-06
6.29798e-05
3.90894e-06
2.16123e-06
1.64812e-07
2.4113e-05
1.0794e-06
8.13364e-06
3.8746e-06
2.08593e-05
4.63181e-05
1.8815e-05
3.95979e-05
1.92591e-05
6.20219e-05
6.88194e-05
8.89539e-05
3.80926e-05
7.6326e-05
3.85635e-05
2.02853e-05
8.34002e-05
0.000102465
0.000100746
4.00024e-05
8.03097e-05
2.90568e-05
1.42882e-05
6.78936e-05
8.7267e-05
7.721e-05
3.17197e-05
5.97213e-05
1.95691e-05
8.51915e-06
4.62013e-05
5.98658e-05
5.09345e-05
2.16895e-05
3.95642e-05
1.30711e-05
4.60656e-06
2.97476e-05
3.76701e-05
3.15223e-05
1.44239e-05
2.52352e-05
8.88637e-06
2.24159e-06
1.84398e-05
2.2579e-05
1.86835e-05
9.79109e-06
1.53711e-05
4.49802e-06
7.93242e-07
9.47449e-06
1.15296e-05
6.85348e-06
5.81293e-06
5.47066e-06
9.63521e-05
7.58151e-05
3.63914e-05
0.000144317
6.45593e-05
0.000235535
0.000131702
0.000193763
0.000250879
0.000373086
0.000118953
0.000128696
0.000180164
0.000490399
0.000182673
0.000261312
0.000520489
0.000132834
0.000125868
0.000193654
0.000483801
0.000114862
0.000170904
0.00035351
9.39517e-05
8.33861e-05
0.000130791
0.000289808
6.27729e-05
0.000100239
0.000192545
5.48743e-05
4.80583e-05
7.2518e-05
0.000155014
3.68872e-05
6.22772e-05
0.000107904
3.26898e-05
2.95442e-05
4.10709e-05
9.1517e-05
2.90047e-05
4.22886e-05
7.20806e-05
2.37247e-05
2.26355e-05
2.98418e-05
6.59254e-05
2.75934e-05
2.13602e-05
5.6137e-05
2.05832e-05
1.83969e-05
2.92766e-05
4.26441e-05
0.00109865
0.000473384
0.000134237
0.0010525
0.000642832
0.00278618
0.0010768
0.00112464
0.00171873
0.00245186
0.000813496
0.000811
0.00115646
0.00281567
0.000709478
0.00128196
0.00230174
0.000633395
0.000553635
0.000813835
0.00187415
0.00035212
0.000641054
0.00120289
0.000337715
0.00028563
0.000416743
0.000903248
0.00016115
0.000297029
0.000542294
0.00016094
0.000134542
0.000193888
0.000400721
7.76344e-05
0.00015454
0.000249357
7.76303e-05
6.73971e-05
9.0269e-05
0.000196221
6.09764e-05
0.000116836
0.000152666
5.33259e-05
5.36659e-05
6.04557e-05
0.000147666
9.4712e-05
0.000108224
0.000166716
7.33653e-05
7.75851e-05
8.71997e-05
0.000156371
0.00290458
0.00255953
0.000454972
0.00606339
0.00260346
0.00682891
0.00311731
0.00239974
0.00493823
0.00562209
0.00226472
0.00212745
0.00255465
0.00601533
0.00144372
0.00315394
0.0048393
0.00150248
0.00128226
0.00168413
0.00382831
0.000677157
0.00147902
0.00245946
0.000736643
0.000610111
0.000816226
0.00178883
0.000286887
0.000613039
0.00102906
0.000320444
0.000261592
0.000352933
0.000720237
0.000121825
0.000270266
0.000414546
0.000135735
0.000113339
0.000146884
0.000306809
8.56783e-05
0.000193454
0.000222594
8.09028e-05
8.14616e-05
8.53571e-05
0.000212714
0.000150341
0.000227773
0.000256148
0.000127126
0.00014235
0.000133383
0.000253966
0.00326271
0.00342865
0.000345286
0.00723231
0.00327197
0.00683246
0.00325474
0.00288824
0.00713226
0.00676603
0.00300802
0.0028424
0.00304986
0.00730179
0.00177513
0.00453959
0.00594128
0.00203825
0.00174128
0.00207273
0.00467846
0.000835687
0.00211855
0.00301541
0.000990013
0.000820956
0.00100794
0.00218345
0.000348274
0.000837533
0.00124569
0.000425061
0.000343537
0.000431418
0.000859128
0.000141023
0.000342985
0.00048157
0.000171154
0.000140201
0.000172529
0.000347783
9.23695e-05
0.000226343
0.000240932
9.30575e-05
9.24089e-05
9.30424e-05
0.000226057
0.000163565
0.000272585
0.000273395
0.000144399
0.000163351
0.000144077
0.00027319
0.00316435
0.00324802
0.000418404
0.00686752
0.00321325
0.00704316
0.00328659
0.00267098
0.00713119
0.00620261
0.00295599
0.00278858
0.00284158
0.00661124
0.00158721
0.00447949
0.00520888
0.00196347
0.00167552
0.00187232
0.00407208
0.000724987
0.00203428
0.00252914
0.000936939
0.000771752
0.000882935
0.00180432
0.000293843
0.000780853
0.00100463
0.000392671
0.000315231
0.000366334
0.000687327
0.000117947
0.000312973
0.000383008
0.000154931
0.000126406
0.000144208
0.000277491
8.02202e-05
0.000206457
0.000197366
8.46961e-05
8.46013e-05
7.98095e-05
0.000188448
0.000148898
0.00025459
0.000234142
0.000136336
0.000154817
0.000130797
0.000234515
0.00204935
0.00265827
0.000309494
0.00609294
0.0024753
0.00474867
0.0019472
0.00163792
0.00492525
0.00357644
0.00207804
0.0019326
0.00176045
0.00376466
0.000914447
0.00294761
0.00280161
0.00128814
0.00109505
0.0010892
0.00216606
0.000404918
0.00125842
0.00125828
0.000595591
0.000487289
0.000497411
0.000898089
0.000163226
0.000481186
0.000491405
0.000243936
0.000195695
0.000203224
0.000345907
6.89169e-05
0.000199744
0.000198283
9.77883e-05
8.0937e-05
8.26786e-05
0.000150562
5.14001e-05
0.000141007
0.000113461
5.84865e-05
5.91091e-05
5.0645e-05
0.000109871
9.51498e-05
0.000175854
0.000133777
9.80858e-05
0.000110871
8.48647e-05
0.000130796
0.000415804
0.000816379
6.06747e-05
0.00163987
0.000653557
0.000767851
0.000417319
0.000492437
0.0018473
0.000893376
0.00072316
0.000701376
0.000507657
0.00094821
0.000303513
0.00109144
0.00072943
0.000493217
0.000421942
0.000356963
0.000569907
0.000136189
0.000448551
0.000331439
0.000227113
0.000186829
0.000167245
0.000240861
5.77342e-05
0.000178549
0.000136648
9.42823e-05
7.73722e-05
7.07716e-05
0.00010141
2.7664e-05
8.40745e-05
6.27142e-05
4.14615e-05
3.58552e-05
3.21669e-05
5.04497e-05
2.06429e-05
6.04074e-05
3.79557e-05
2.71654e-05
2.69708e-05
2.09504e-05
3.54233e-05
2.37887e-05
5.43358e-05
3.34477e-05
3.48923e-05
3.5656e-05
2.43631e-05
2.63021e-05
5.00652e-05
3.67603e-05
7.66022e-05
7.04364e-06
4.76336e-05
3.26723e-05
7.72786e-05
9.21171e-05
0.000168971
8.17607e-05
0.000146009
8.20505e-05
0.000191426
9.15526e-05
7.8487e-05
0.000190087
7.57827e-05
0.000224182
7.08162e-05
0.000218509
8.40661e-05
5.48088e-05
0.000146155
5.55351e-05
0.000190126
4.98796e-05
0.000168179
6.10506e-05
3.57385e-05
9.77892e-05
3.65682e-05
0.000131788
3.26074e-05
0.000112943
3.99772e-05
2.39791e-05
6.18308e-05
2.40836e-05
8.44539e-05
2.18171e-05
7.17597e-05
2.6355e-05
1.78915e-05
3.73176e-05
1.71641e-05
5.14223e-05
1.60615e-05
4.40453e-05
1.89902e-05
1.16346e-05
1.55523e-05
1.22899e-05
3.02397e-05
1.01602e-05
1.92871e-05
1.39643e-05
0.000581271
0.000182648
0.000692416
0.000329686
0.0004243
0.000222071
0.000954306
0.0210179
0.0123727
0.117508
0.128085
0.0177156
0.0176607
0.0126074
0.0194423
0.0238793
0.125369
0.0115707
0.0244354
0.0192301
0.0116898
0.0199598
0.0249705
0.130531
0.0118059
0.0250587
0.019869
0.011858
0.0197415
0.0249301
0.128143
0.0118366
0.0247566
0.0198699
0.0117604
0.0197723
0.0230709
0.120794
0.0116267
0.021364
0.0193238
0.0121036
0.00291232
0.00567925
0.00335447
0.0829482
0.00208432
0.00874299
0.00581757
4.95399e-05
1.6622e-05
4.84103e-05
6.80136e-06
4.7739e-05
2.91791e-05
7.41869e-05
9.85259e-05
0.00019729
9.96647e-05
0.000146709
0.000101136
0.00019473
9.76118e-05
8.32837e-05
0.000232851
9.14468e-05
0.00023023
8.52541e-05
0.000224695
8.92676e-05
5.79463e-05
0.000181324
6.61379e-05
0.000196201
5.93192e-05
0.000173758
6.45725e-05
3.78319e-05
0.000122179
4.33054e-05
0.000136264
3.87736e-05
0.000116822
4.22513e-05
2.54671e-05
7.7922e-05
2.86455e-05
8.74044e-05
2.61361e-05
7.4311e-05
2.79188e-05
1.91998e-05
4.85651e-05
2.09219e-05
5.34604e-05
1.97917e-05
4.59158e-05
2.03032e-05
1.29745e-05
2.17748e-05
1.60906e-05
3.17403e-05
1.35617e-05
2.02994e-05
1.54263e-05
0.000746775
0.000281181
0.00116107
0.000337287
0.000819915
0.000263256
0.00104676
0.0202369
0.0220502
0.0117916
0.127336
0.0198994
0.0207674
0.0122084
0.0126456
0.0104707
0.010007
0.0107727
0.0103332
0.012729
0.0107896
0.0127619
0.010329
0.0100077
0.0108314
0.010339
0.0127324
0.0108547
0.0127088
0.0103357
0.0100074
0.0108445
0.0103311
0.0127409
0.0108172
0.0152744
0.0111519
0.0108606
0.0108045
0.0135283
0.013295
0.0115184
0.0037771
0.01234
0.00687223
0.0919141
0.00414888
0.0111724
0.00640555
3.40215e-05
3.62375e-05
7.37771e-05
4.47323e-06
4.17566e-05
2.70434e-05
5.65997e-05
5.2499e-05
0.00015583
6.50591e-05
8.52124e-05
6.55435e-05
0.0001103
5.19579e-05
4.87616e-05
0.000175735
6.28876e-05
0.000126599
5.91333e-05
0.000124472
5.15943e-05
3.59985e-05
0.000135309
4.75878e-05
0.000108097
4.28911e-05
9.58133e-05
3.98197e-05
2.39935e-05
9.0315e-05
3.17406e-05
7.44443e-05
2.83511e-05
6.34943e-05
2.68577e-05
1.60779e-05
5.68515e-05
2.10006e-05
4.71317e-05
1.90264e-05
3.95971e-05
1.78003e-05
1.12789e-05
3.43306e-05
1.48244e-05
2.84184e-05
1.36663e-05
2.36094e-05
1.23376e-05
6.37303e-06
1.39343e-05
9.96435e-06
1.48119e-05
8.1197e-06
8.90852e-06
7.9183e-06
0.000156064
0.000128746
0.000558498
0.00017786
0.000239243
9.30234e-05
0.000313242
0.00293314
0.00528121
0.0860897
0.00207617
0.00897721
0.00176797
0.0059917
0.00642676
0.0156867
0.117454
0.0112537
0.0164953
0.00601582
0.0122396
0.00698205
0.0172508
0.119498
0.0129301
0.0173142
0.00695498
0.0125165
0.00679068
0.0171777
0.119221
0.0125314
0.0169638
0.00689639
0.0126161
0.00471485
0.0146292
0.10078
0.0111569
0.0125795
0.00552432
0.00889397
0.00068848
0.00254358
0.00243846
0.00267587
0.00113848
0.00119157
0.00106778
3.13081e-05
2.87247e-06
5.57948e-05
6.0321e-05
3.06057e-05
3.56499e-05
2.95215e-05
3.39441e-05
1.10269e-05
6.20119e-05
0.000122012
6.55478e-05
4.60941e-05
2.92923e-05
4.19754e-05
7.33524e-05
8.13761e-05
6.65762e-05
4.78767e-05
5.72482e-05
4.19839e-05
3.40858e-05
4.49054e-06
3.61772e-05
7.35525e-05
2.71305e-05
5.62914e-05
4.17833e-05
4.4117e-05
7.4919e-05
5.36132e-05
6.11749e-05
3.8923e-05
4.88209e-05
5.48211e-05
4.63079e-05
0.000148336
0.000105304
7.96231e-05
7.78175e-05
6.43666e-05
5.76901e-05
4.05425e-05
2.00541e-05
8.37534e-05
0.00010191
9.32308e-05
4.05757e-05
7.90589e-05
5.56513e-05
8.1158e-05
0.000195
7.59032e-05
5.29724e-05
8.07567e-05
9.98069e-05
5.81648e-05
0.000109844
0.000203769
8.55949e-05
5.81178e-05
8.53563e-05
0.000103486
5.25628e-05
8.53855e-05
0.00015603
6.51293e-05
0.000110479
5.20274e-05
6.56114e-05
5.3673e-05
0.00012617
0.000163558
6.42783e-05
0.000115773
5.23475e-05
6.6366e-05
3.66698e-05
1.99052e-05
7.0984e-05
9.08636e-05
9.84812e-05
3.4248e-05
7.79616e-05
5.51475e-05
0.000109258
0.000208751
8.48313e-05
5.76825e-05
8.1159e-05
0.000104727
5.23809e-05
9.15662e-05
0.00020034
7.01178e-05
4.82871e-05
7.63596e-05
0.000101393
4.88111e-05
0.00012675
0.000175945
6.294e-05
0.00012463
5.16449e-05
5.91879e-05
4.66221e-05
0.000112685
0.000171844
5.14707e-05
0.000121879
4.28512e-05
5.6225e-05
2.64835e-05
1.36966e-05
4.89751e-05
6.34627e-05
7.33004e-05
2.39777e-05
5.65838e-05
4.00865e-05
8.72605e-05
0.000141354
6.33528e-05
4.43562e-05
5.69515e-05
7.61125e-05
3.62274e-05
6.17986e-05
0.000131813
4.48682e-05
3.23452e-05
5.0595e-05
7.18932e-05
3.60358e-05
0.000108204
0.000135477
4.76287e-05
9.59281e-05
3.98572e-05
4.2934e-05
3.30614e-05
7.90432e-05
0.000128461
3.509e-05
9.10899e-05
2.95942e-05
3.9281e-05
1.76634e-05
8.05254e-06
3.17064e-05
4.0284e-05
4.77523e-05
1.59369e-05
3.71683e-05
2.58559e-05
5.8139e-05
8.55556e-05
3.9348e-05
2.89554e-05
3.49625e-05
4.96129e-05
2.321e-05
3.97071e-05
7.96789e-05
2.76529e-05
2.08049e-05
3.08806e-05
4.65647e-05
2.40217e-05
7.45207e-05
9.04304e-05
3.17715e-05
6.35781e-05
2.68862e-05
2.83838e-05
2.18241e-05
5.04734e-05
8.46638e-05
2.31072e-05
5.96163e-05
1.95572e-05
2.57316e-05
1.18639e-05
4.31797e-06
1.98004e-05
2.43256e-05
2.93173e-05
1.07702e-05
2.35617e-05
1.70249e-05
3.72302e-05
5.37539e-05
2.46192e-05
1.87823e-05
2.24122e-05
3.16933e-05
1.55613e-05
2.50592e-05
5.04574e-05
1.89412e-05
1.42462e-05
2.04009e-05
2.96368e-05
1.61022e-05
4.71714e-05
5.69243e-05
2.10264e-05
3.96375e-05
1.78236e-05
1.90547e-05
1.47723e-05
3.0672e-05
5.28839e-05
1.60158e-05
3.68765e-05
1.34367e-05
1.75238e-05
7.97239e-06
2.22921e-06
1.08443e-05
1.31914e-05
1.7187e-05
6.9682e-06
1.41387e-05
1.21151e-05