/*--------------------------------*- C++ -*----------------------------------*\
| =========                 |                                                 |
| \\      /  F ield         | OpenFOAM: The Open Source CFD Toolbox           |
|  \\    /   O peration     | Version:  2.4.0                                 |
|   \\  /    A nd           | Web:      www.OpenFOAM.org                      |
|    \\/     M anipulation  |                                                 |
\*---------------------------------------------------------------------------*/
FoamFile
{
    version     2.0;
    format      ascii;
    class       volScalarField;
    location    "80";
    object      k;
}
// * * * * * * * * * * * * * * * * * * * * * * * * * * * * * * * * * * * * * //

dimensions      [0 2 -2 0 0 0 0];

internalField   nonuniform List<scalar> 
43096
(
2.98613e-05
0.000133552
0.000165879
0.000139939
0.000102523
7.42503e-05
4.66793e-05
2.73399e-05
0.000181828
0.000883934
0.00112126
0.000912025
0.000644613
0.000459023
0.000346844
0.000261173
0.000375979
0.00324319
0.00349668
0.00235127
0.00141451
0.000873416
0.000646164
0.00064494
0.00119386
0.00727486
0.00661022
0.00421118
0.00239097
0.00133255
0.000901709
0.000984764
0.00129386
0.00933906
0.00848968
0.00540247
0.0030026
0.00159949
0.00101637
0.00109952
0.00124957
0.00932693
0.0084411
0.00528969
0.00288532
0.00151542
0.000952762
0.00104724
0.00119985
0.0073612
0.00641624
0.00384152
0.00206378
0.00109999
0.000729141
0.000818851
0.000571154
0.00378433
0.00331102
0.00192978
0.00103767
0.0005911
0.00041853
0.000413893
7.50586e-05
0.000682089
0.000887808
0.000794147
0.000620352
0.000459907
0.000328209
0.000223676
0.00114123
0.0141965
0.0106768
0.00715371
0.0046556
0.00328779
0.00304508
0.00244628
0.115839
0.0496556
0.0262754
0.0145738
0.00829852
0.00529143
0.00564148
0.00791704
0.142245
0.0668192
0.0390946
0.0216571
0.0117308
0.00693017
0.00732619
0.012515
0.142625
0.0692758
0.0422037
0.0239708
0.0129504
0.00742869
0.00763808
0.0135298
0.142774
0.0671434
0.0392472
0.0214587
0.0113589
0.00654851
0.00699547
0.0131647
0.142365
0.0511021
0.0269308
0.014199
0.00755578
0.00454305
0.00487817
0.0103862
0.0312268
0.0239448
0.0158422
0.00892099
0.00491185
0.00292261
0.00237987
0.00351766
4.64745e-05
0.000729923
0.0010124
0.000914716
0.000718281
0.000534683
0.000386406
0.000274428
0.00127272
0.0141955
0.0106755
0.00715247
0.00465436
0.00328624
0.00304247
0.00295655
0.142802
0.0496542
0.0262739
0.0145723
0.00829702
0.00528934
0.00563591
0.0105998
0.100096
0.0668177
0.0390928
0.0216554
0.0117291
0.00692789
0.00731956
0.0171524
0.100025
0.0692742
0.0422018
0.023969
0.0129487
0.00742644
0.00763185
0.0184777
0.100028
0.0671431
0.0392459
0.0214571
0.0113573
0.00654637
0.0069893
0.0180587
0.100161
0.0511015
0.0269295
0.0141974
0.00755432
0.00454141
0.00487405
0.0144598
0.0593429
0.0276845
0.0174613
0.00972066
0.00534672
0.00319363
0.00267842
0.00456716
7.22614e-05
0.000646704
0.000839311
0.000753125
0.000588272
0.000435467
0.000311148
0.000209124
0.0010813
0.00625769
0.00615336
0.0046627
0.00319853
0.00225324
0.0018181
0.00165178
0.0290274
0.0241037
0.0170649
0.0105132
0.00622554
0.00386743
0.00317428
0.00434182
0.0646781
0.042094
0.0288257
0.0171027
0.00955164
0.00545502
0.00423317
0.00653092
0.0662474
0.0478056
0.0339398
0.020243
0.0111315
0.00619514
0.0046033
0.00710823
0.0663188
0.0466181
0.0323096
0.018855
0.0102022
0.00563019
0.00426183
0.00679713
0.0643358
0.0357648
0.0232768
0.013207
0.00712712
0.00402428
0.0031841
0.00518496
0.0191631
0.0158799
0.0118568
0.0069672
0.00388467
0.00230622
0.00177473
0.00208146
0.000122778
0.000164586
0.000702006
7.23634e-05
0.000594733
0.000932106
0.00277942
0.000165968
0.000755609
0.000962071
0.000647192
0.000837525
0.00337184
0.00360501
0.000146738
0.000958672
0.000830289
0.000839793
0.000774806
0.00357078
0.00331899
0.000109321
0.000797183
0.000605017
0.000753541
0.000612571
0.00293785
0.002549
7.64862e-05
0.000575806
0.000435196
0.000588585
0.000456106
0.00217345
0.00186478
4.90219e-05
0.000415566
0.00032537
0.00043569
0.000328098
0.00160398
0.00140579
2.98349e-05
0.000311837
0.000241599
0.000311323
0.000226933
0.00123959
0.00110487
4.22658e-06
0.000225287
2.05542e-05
0.000209221
2.31394e-05
0.000909824
0.00022645
0.000816031
0.000341114
0.00244839
0.00108082
0.00533077
0.0151332
0.0118211
0.00112796
0.00266895
0.00314094
0.00626004
0.0065342
0.0115066
0.0114645
0.000952291
0.00302762
0.00227091
0.0061554
0.00556322
0.0100798
0.00881782
0.000678827
0.00211108
0.00139749
0.00466454
0.00394564
0.00698444
0.00577822
0.000480677
0.0012963
0.000867455
0.00320007
0.00269396
0.00445442
0.00367444
0.000360586
0.000816004
0.000626976
0.00225467
0.00199875
0.00296499
0.00263014
0.000276819
0.000609062
0.000590438
0.00181988
0.00174026
0.00244667
0.00249191
2.7927e-05
0.00058954
9.4586e-05
0.00165431
0.000279488
0.00282368
0.00178046
0.00297991
0.00103153
0.00656157
0.0290297
0.0276487
0.063818
0.0431673
0.00365448
0.0067734
0.00652855
0.0241072
0.0214543
0.0340038
0.0293913
0.00253333
0.00616357
0.00425921
0.017068
0.0137662
0.0225557
0.0181484
0.00152623
0.00394473
0.00244863
0.010516
0.00824212
0.013487
0.0105334
0.000929427
0.00226232
0.00137065
0.00622784
0.00490442
0.0077499
0.00603645
0.000663624
0.00127867
0.000899177
0.00386942
0.00334005
0.00463775
0.00393823
0.000639723
0.000875939
0.00092167
0.00317728
0.00344199
0.00374124
0.00414226
0.000105407
0.000952096
0.000167886
0.00434994
0.00353579
0.00568517
0.00883764
0.00704302
0.00130841
0.00888717
0.0646803
0.0517152
0.0660535
0.0554965
0.0069965
0.00921392
0.00884066
0.0420995
0.0365797
0.0462865
0.0405134
0.00453554
0.0083554
0.0056917
0.0288299
0.0227966
0.0321388
0.0255475
0.00258554
0.00531386
0.00320387
0.0171063
0.0129822
0.0189972
0.0144569
0.00142985
0.00295774
0.00170392
0.00955461
0.00720727
0.0104837
0.00790905
0.000925795
0.00158282
0.00104512
0.00545746
0.00450462
0.00592067
0.00483551
0.000949985
0.00101216
0.00105573
0.00423672
0.00475202
0.00450223
0.00504312
0.000173467
0.0010958
0.000190913
0.00654221
0.00914671
0.00697769
0.00999017
0.00899461
0.00121719
0.00901188
0.0662523
0.0566987
0.0663571
0.0566421
0.008979
0.00938548
0.00904273
0.0478143
0.0421078
0.0478563
0.0421895
0.00578264
0.00854447
0.00577153
0.0339446
0.0269699
0.0339866
0.0269759
0.00325175
0.00537975
0.00320371
0.0202467
0.0153263
0.0202091
0.015263
0.00172298
0.00294847
0.00167564
0.0111347
0.00832336
0.0110608
0.00823904
0.00104967
0.00155105
0.00100662
0.00619775
0.00499677
0.006122
0.00491718
0.00105687
0.000973339
0.00102178
0.00460673
0.00514656
0.00452998
0.00507761
0.00019092
0.00106378
0.000177577
0.00712001
0.0100116
0.00706833
0.00999698
0.00896537
0.00123948
0.00756291
0.0663128
0.0556578
0.0650506
0.0523635
0.00894113
0.00780197
0.00725942
0.0466209
0.0408313
0.0429968
0.0373162
0.00568188
0.00682762
0.00448694
0.0323132
0.0255765
0.0292345
0.0229005
0.00313962
0.00411467
0.00241794
0.0188586
0.0142489
0.0169122
0.012653
0.00163745
0.00221294
0.00126942
0.0102054
0.00762995
0.00912685
0.00676868
0.000983997
0.00117227
0.000793396
0.00563271
0.00457713
0.00502125
0.00409685
0.0010039
0.000769799
0.000828388
0.00426491
0.00482631
0.00384688
0.00438141
0.000173178
0.000865993
0.000140896
0.00680828
0.00994198
0.00623605
0.00903228
0.00715256
0.000692716
0.00416547
0.0643373
0.0449297
0.0321521
0.0312505
0.00683212
0.00435594
0.00399962
0.0357664
0.0307489
0.0270839
0.0234113
0.00420456
0.00376059
0.0023887
0.0232798
0.018367
0.0180411
0.014009
0.00226291
0.00218012
0.00127418
0.0132102
0.0100667
0.010221
0.0076805
0.00119177
0.00116277
0.000705224
0.00712985
0.0054233
0.0055481
0.00420626
0.000750649
0.000654664
0.00047681
0.00402621
0.00337004
0.00319482
0.0026868
0.000782845
0.000461696
0.000464802
0.00318627
0.00357028
0.00253237
0.00278035
0.000132483
0.000472631
6.38668e-05
0.00519446
0.00867921
0.00367429
0.00315373
0.00361651
4.58929e-05
0.000454356
0.0191641
0.0161734
0.000453813
0.00315918
0.00351265
0.000467641
0.000418995
0.0158815
0.0145765
0.0032996
0.00306464
0.00211249
0.000399211
0.000256922
0.0118592
0.0093049
0.00291091
0.00191407
0.00113673
0.000239383
0.000142978
0.00696951
0.00523971
0.00177113
0.00108895
0.000636254
0.000132587
7.94046e-05
0.00388635
0.00296253
0.00100396
0.000639232
0.00043235
7.40492e-05
4.90095e-05
0.00230727
0.00193688
0.000595145
0.000432992
0.000410993
4.6608e-05
3.74817e-05
0.00177576
0.00184267
0.00041508
0.000401527
5.35419e-05
3.60963e-05
6.11439e-06
0.00208494
0.00136901
0.000401742
5.14526e-05
0.000624974
0.000980905
0.00375611
4.65679e-05
0.00065008
0.0010292
0.00417371
0.000884759
0.00474976
0.00485859
0.000729879
0.00100769
0.00514617
0.00527304
0.000815832
0.00468937
0.00427216
0.00101237
0.000938927
0.00508555
0.00464757
0.000644773
0.00372261
0.00320543
0.000914637
0.000746424
0.00404464
0.00349286
0.000480799
0.00272465
0.00233392
0.000718179
0.000558738
0.0029614
0.00254323
0.000346037
0.00200657
0.00176714
0.000534575
0.000406543
0.00218399
0.00193167
0.000241553
0.00156428
0.00144807
0.000386295
0.000294746
0.00172728
0.00161943
2.47963e-05
0.00124595
0.000251894
0.000274306
2.97444e-05
0.00145056
0.000340067
0.0087383
0.0270763
0.0233328
0.00127254
0.0108681
0.0555289
0.032404
0.00031206
0.00457124
0.00377407
0.00295798
0.000434605
0.00582794
0.0087162
0.062296
0.142242
0.086684
0.142803
0.0829254
0.100158
0.096578
0.00648621
0.0108899
0.0177802
0.0106025
0.0168637
0.0150035
0.0383283
0.0935268
0.142662
0.0955232
0.100096
0.0964468
0.100024
0.0966452
0.018041
0.0132943
0.0197473
0.0171538
0.038798
0.0181858
0.0417693
0.0961879
0.142706
0.0962463
0.100025
0.0968411
0.100028
0.0969091
0.0197497
0.013476
0.0197327
0.0184784
0.0417714
0.0184335
0.0417675
0.0956156
0.142287
0.0937486
0.100028
0.0968539
0.100101
0.0967507
0.0196813
0.0122198
0.0178699
0.0180591
0.0416827
0.0168534
0.038605
0.0873644
0.115566
0.0646508
0.100161
0.0971036
0.141976
0.0844204
0.0175484
0.00706623
0.00588149
0.0144594
0.0380329
0.00963348
0.0159799
0.0280835
0.000505476
0.00348934
0.0593432
0.0366112
0.000530339
0.00435312
0.0206175
0.00364283
0.00332875
0.0276846
0.0232149
0.00448492
0.00392908
0.0121753
0.00315476
0.00204868
0.0174618
0.0133605
0.00370019
0.00237544
0.0066951
0.00189496
0.00116099
0.00972125
0.00730547
0.00219298
0.00135976
0.0037697
0.00107098
0.000682558
0.00534718
0.00411533
0.00125367
0.000806756
0.0025089
0.000635719
0.000465621
0.00319393
0.00276337
0.000751043
0.000565971
0.00267085
0.000446282
0.000445777
0.00267862
0.00313527
0.00054703
0.000613439
0.00316876
0.000450879
5.905e-05
0.00456513
0.00792156
0.000639113
9.33108e-05
0.000650033
0.00102935
0.00417355
7.5156e-05
0.000624652
0.000981386
0.0037552
0.00100753
0.00514577
0.00527254
0.000681591
0.000884374
0.00474849
0.00485729
0.000938747
0.00508505
0.00464704
0.000887219
0.000815471
0.00468804
0.00427088
0.00074625
0.00404415
0.00349236
0.00079356
0.000644469
0.00372135
0.00320424
0.000558588
0.00296092
0.00254273
0.000619821
0.000480563
0.00272344
0.00233275
0.000406407
0.0021835
0.00193109
0.000459462
0.000345847
0.00200533
0.00176586
0.0002946
0.00172668
0.00161861
0.000327823
0.000241433
0.00156286
0.00144676
2.97186e-05
0.00144936
0.000339804
0.00022336
2.47877e-05
0.00124496
0.000251663
0.0108677
0.0555286
0.0324032
0.00114156
0.00873684
0.0270751
0.0233307
0.000434281
0.00582166
0.00870554
0.00244261
0.000311731
0.00456521
0.00376853
0.0829247
0.100158
0.096578
0.115843
0.0622939
0.142239
0.0866822
0.016845
0.014992
0.0382877
0.00790003
0.00647663
0.0108691
0.0177537
0.0964474
0.100024
0.0966457
0.142237
0.0935255
0.142659
0.095521
0.0387614
0.0181743
0.0417296
0.0124882
0.0180142
0.0132699
0.0197224
0.0968417
0.100028
0.0969097
0.142618
0.0961858
0.142698
0.0962454
0.0417357
0.0184223
0.0417277
0.0135009
0.0197246
0.0134514
0.0197078
0.096855
0.100101
0.0967514
0.142768
0.0956156
0.142277
0.0937485
0.0416469
0.0168432
0.0385641
0.0131359
0.019656
0.0121965
0.0178437
0.0971039
0.141976
0.0844203
0.142363
0.0873638
0.115562
0.0646499
0.0379962
0.00962861
0.0159609
0.0103613
0.017522
0.00705166
0.00587259
0.0366116
0.0005324
0.00435326
0.0312261
0.0280833
0.000505567
0.00348927
0.0232146
0.00448499
0.00392901
0.0239442
0.0206163
0.00364267
0.00332822
0.0133598
0.00370012
0.00237533
0.0158406
0.0121736
0.0031542
0.0020481
0.0073048
0.00219287
0.00135964
0.00891918
0.00669356
0.00189438
0.00116056
0.00411468
0.00125356
0.000806602
0.00491032
0.00376849
0.00107055
0.000682266
0.00276257
0.000750906
0.000565743
0.00292122
0.0025077
0.000635423
0.000465381
0.0031339
0.000546815
0.00061302
0.00237749
0.00266767
0.000446029
0.000445265
0.00791164
0.000638756
9.31926e-05
0.00350883
0.00316353
0.000450238
5.89783e-05
0.00059416
0.000932541
0.00277684
2.80975e-05
0.000131765
0.000165808
0.000700978
0.000836836
0.00336971
0.00360307
0.000144594
0.000174522
0.000754738
0.000961592
0.000774144
0.00356891
0.00331719
0.000176573
0.000142745
0.000958208
0.000830022
0.000611995
0.00293613
0.00254739
0.000138424
0.000111037
0.000796933
0.000604887
0.000455639
0.0021719
0.00186329
0.000107612
7.31951e-05
0.000575681
0.000435141
0.000327705
0.00160244
0.00140421
7.01409e-05
5.03699e-05
0.000415513
0.000325345
0.000226622
0.00123781
0.00110324
4.85725e-05
3.19025e-05
0.000311823
0.000241569
2.30987e-05
0.000908166
0.000225973
2.70454e-05
4.43982e-06
0.000225262
2.05599e-05
0.00532772
0.015133
0.0118179
0.000192399
0.000815036
0.000341913
0.00244747
0.00653202
0.0115039
0.011462
0.000882965
0.00112742
0.00266811
0.00313997
0.00556112
0.0100773
0.00881531
0.00112058
0.000951907
0.0030267
0.00227
0.0039438
0.00698205
0.00577596
0.00091149
0.000678619
0.00211023
0.00139685
0.00269233
0.00445242
0.00367257
0.000644212
0.000480584
0.00129572
0.000867136
0.00199692
0.00296307
0.002628
0.000458696
0.000360545
0.000815734
0.000626863
0.00173791
0.00244375
0.00248828
0.000346539
0.000276755
0.000608993
0.000590194
0.00027888
0.00281665
0.00177453
0.000260815
2.79299e-05
0.000589285
9.43505e-05
0.0276447
0.0638173
0.0431626
0.000375565
0.00297899
0.00107393
0.0065602
0.0214511
0.0339996
0.0293873
0.00324218
0.00365341
0.00677197
0.00652711
0.0137631
0.022552
0.0181449
0.00349544
0.00253231
0.00616211
0.0042578
0.00823946
0.0134837
0.0105304
0.00235009
0.00152549
0.00394332
0.00244749
0.00490218
0.00774714
0.00603394
0.00141363
0.000929038
0.0022612
0.00136994
0.00333746
0.00463524
0.00393547
0.000872796
0.000663475
0.001278
0.000898848
0.00343656
0.00373707
0.00413563
0.000645543
0.000639422
0.000875658
0.00092105
0.00352708
0.00566866
0.00881683
0.000643711
0.000105108
0.000951359
0.000167334
0.0517091
0.0660507
0.0554873
0.00117612
0.00704152
0.00130973
0.00888372
0.0365751
0.0462791
0.0405079
0.00727306
0.00699496
0.0092106
0.00883862
0.0227928
0.0321342
0.0255435
0.00660837
0.00453411
0.00835342
0.00568997
0.0129789
0.0189935
0.0144534
0.00420944
0.00258438
0.00531214
0.00320252
0.00720448
0.0104805
0.00790618
0.0023896
0.00142913
0.00295639
0.00170301
0.00450156
0.00591786
0.0048325
0.0013316
0.000925461
0.00158196
0.00104467
0.00474475
0.00449774
0.0050351
0.000900804
0.000949391
0.00101176
0.00105485
0.0091263
0.00695869
0.00996959
0.000982661
0.000172868
0.00109471
0.000190282
0.0566856
0.0663626
0.0566318
0.00129579
0.00899053
0.00110092
0.00901017
0.0421018
0.0478496
0.0421845
0.00933495
0.00897686
0.00938349
0.00904083
0.0269657
0.0339821
0.0269717
0.00848724
0.00578091
0.00854256
0.00576974
0.0153228
0.0202053
0.0152594
0.0054004
0.00325041
0.00537798
0.00320227
0.00832034
0.0110574
0.00823604
0.003001
0.00172209
0.00294704
0.00167466
0.00499364
0.00611917
0.00491426
0.00159837
0.00104925
0.00155012
0.00100614
0.00513906
0.00452585
0.00506999
0.00101539
0.00105609
0.000972916
0.00102084
0.00999186
0.00704945
0.00997652
0.00109704
0.000190258
0.00106257
0.000176964
0.0556554
0.0650512
0.0523625
0.00118958
0.00896505
0.00124173
0.00756321
0.040828
0.0429953
0.0373138
0.00932572
0.00893939
0.00780201
0.00725811
0.0255727
0.0292313
0.022897
0.00843885
0.00568012
0.00682627
0.00448536
0.0142453
0.0169085
0.0126495
0.0052876
0.0031382
0.00411307
0.00241663
0.00762695
0.00912364
0.00676592
0.00288368
0.0016365
0.00221165
0.00126862
0.0045742
0.00501875
0.00409436
0.00151428
0.000983572
0.00117153
0.000793036
0.00481962
0.00384333
0.00437458
0.00095182
0.00100313
0.00076946
0.000827483
0.0099221
0.00621858
0.00901154
0.00104485
0.000172559
0.000864811
0.000140372
0.0449282
0.0321512
0.0312491
0.00120039
0.00715274
0.000642259
0.00416521
0.0307465
0.0270821
0.0234089
0.00736085
0.00683076
0.00435551
0.00399841
0.0183636
0.0180382
0.014006
0.0064145
0.00420304
0.00375942
0.00238759
0.0100635
0.010218
0.00767781
0.00383975
0.00226169
0.00217908
0.00127348
0.00542083
0.00554577
0.00420428
0.00206239
0.00119105
0.00116213
0.000704902
0.00336781
0.00319316
0.00268514
0.00109909
0.000750332
0.000654391
0.000476681
0.003565
0.00253023
0.00277607
0.000728336
0.000782099
0.000461583
0.000464258
0.00865954
0.00366406
0.00314569
0.000816723
0.00013201
0.000471941
6.3654e-05
0.0161723
0.000453898
0.00315894
0.000561911
0.00361615
4.57688e-05
0.000454123
0.0145742
0.00329929
0.00306391
0.00378367
0.00351154
0.00046739
0.000418626
0.0093023
0.00291017
0.0019133
0.00330969
0.00211147
0.000398856
0.00025664
0.00523754
0.00177037
0.00108831
0.00192867
0.00113612
0.000239105
0.000142796
0.00296093
0.00100337
0.000638708
0.00103696
0.00063599
0.0001324
7.92957e-05
0.00193541
0.00059466
0.000432458
0.000590662
0.00043226
7.39375e-05
4.89367e-05
0.00183959
0.000414544
0.00040054
0.000418089
0.000410566
4.65292e-05
3.74077e-05
0.00136402
0.00040073
5.12691e-05
0.000412752
5.33791e-05
3.60205e-05
5.7905e-06
0.000752347
2.29389e-05
8.82764e-05
6.02979e-05
0.000201439
0.000343251
0.000187662
0.00144108
0.000156366
0.000415341
0.000445177
0.000528097
0.00134605
0.000476917
0.00153419
0.000161762
0.000505769
0.000580072
0.000573418
0.0015511
0.000493045
0.0013021
0.000127994
0.000440549
0.000520799
0.000479828
0.00137241
0.000404295
0.00100526
9.06493e-05
0.000340512
0.000404777
0.000363355
0.00107415
0.000306974
0.000757047
6.01637e-05
0.000253698
0.000297061
0.000263721
0.000811187
0.000227252
0.000560694
4.16541e-05
0.000184198
0.000210986
0.000185837
0.000604235
0.000163012
0.000321264
2.08145e-05
0.000117881
0.000134524
9.51664e-05
0.000396512
8.17616e-05
0.00264239
0.00047476
0.000239415
0.000729867
0.00200229
0.00101162
0.0006864
0.00487122
0.00105056
0.001369
0.00341251
0.00367956
0.0045304
0.00164235
0.00485215
0.00107919
0.0017086
0.00384729
0.00375511
0.00499111
0.00162713
0.00357757
0.00081256
0.00131969
0.00309134
0.0028762
0.00386408
0.0011557
0.00240781
0.000568618
0.000879434
0.00218124
0.00200927
0.00262986
0.000760691
0.0016984
0.00041332
0.000596754
0.00155372
0.00145319
0.00182181
0.000534262
0.0013803
0.000318571
0.000454836
0.00121048
0.00115922
0.00142746
0.000428062
0.00114155
0.000202076
0.000383924
0.000983175
0.00086742
0.00125237
0.000320161
0.013298
0.00161222
0.000571567
0.00274752
0.0092031
0.00526107
0.0027895
0.0162452
0.00379006
0.00480487
0.0126171
0.012994
0.0160383
0.00526736
0.0124283
0.00311644
0.00460443
0.0113489
0.0104556
0.0136065
0.00401446
0.00774165
0.00196283
0.00298667
0.00749211
0.00667869
0.00871033
0.00246713
0.00456889
0.00117446
0.00175538
0.00453537
0.00402189
0.00517267
0.00143433
0.00284653
0.000758134
0.00104437
0.00281886
0.00256789
0.00314788
0.000889263
0.00235266
0.000626398
0.000750139
0.00215487
0.00213306
0.00236785
0.000732047
0.0027367
0.000594376
0.000791174
0.00238612
0.00235561
0.0027241
0.000758934
0.0254031
0.0049688
0.00129057
0.00883557
0.023732
0.0095638
0.00566675
0.0275967
0.00766059
0.00835553
0.0258194
0.0254636
0.0279691
0.00873749
0.0203816
0.00567978
0.00755653
0.0207673
0.018749
0.0225903
0.00646298
0.0122466
0.00342773
0.00481153
0.0129179
0.0113113
0.0140173
0.0038912
0.00681117
0.00190502
0.00269131
0.00733928
0.0063591
0.00788465
0.00212129
0.00389331
0.00110157
0.00146682
0.00415743
0.00368393
0.00441475
0.00119899
0.0030479
0.00087631
0.000965066
0.00294301
0.00292289
0.00307284
0.000933541
0.00388627
0.000974412
0.00105232
0.00360438
0.00371312
0.00376021
0.00104761
0.0271701
0.00603858
0.00120417
0.00993658
0.0272664
0.0095685
0.00583368
0.0314615
0.00978812
0.0094537
0.0314472
0.0311631
0.0316964
0.00994251
0.0236714
0.00724082
0.00866409
0.0258537
0.0233619
0.0261852
0.00738774
0.0141969
0.00435603
0.00551201
0.0160839
0.0140103
0.0162986
0.00444461
0.0077667
0.002346
0.00305711
0.0089568
0.00768154
0.00906222
0.00238622
0.00430717
0.00129178
0.00162135
0.00489441
0.00428046
0.00493178
0.00130393
0.0032386
0.00097308
0.00101777
0.00328335
0.00323535
0.0032875
0.000972262
0.00416163
0.00109809
0.00109872
0.00400712
0.0041503
0.00401053
0.00109962
0.0267216
0.00582212
0.00136716
0.00959581
0.0269385
0.00976088
0.00586893
0.0298309
0.00978673
0.00892056
0.0310527
0.0307563
0.0301936
0.00930495
0.0218492
0.00717664
0.00793633
0.0252658
0.0227569
0.0242979
0.00673447
0.0128176
0.00423968
0.004902
0.0154964
0.0134457
0.0147844
0.0039137
0.00689893
0.00223899
0.00264869
0.00847991
0.0072554
0.00807027
0.00205631
0.00380917
0.00121531
0.00139148
0.00458742
0.00400147
0.0043586
0.00112134
0.00293129
0.00091501
0.000890431
0.00307987
0.00304486
0.00295519
0.000860736
0.00386385
0.00104873
0.000990348
0.00383518
0.0039851
0.00371183
0.000992575
0.0201697
0.00509496
0.000998085
0.0088632
0.0228693
0.00750654
0.00414016
0.0212802
0.00764691
0.00618009
0.0242835
0.0238383
0.0216924
0.00639301
0.0148836
0.00542922
0.00524914
0.0188333
0.0168778
0.0166499
0.00442141
0.00850756
0.00307782
0.00307797
0.011138
0.00970841
0.00980613
0.00245803
0.0045958
0.00162089
0.00164398
0.0060531
0.00522914
0.00533142
0.00130048
0.00263134
0.000900099
0.000896371
0.00333134
0.00294842
0.00296321
0.000745154
0.00211615
0.000709004
0.000614927
0.00235563
0.00234265
0.00212624
0.000600218
0.0027474
0.000818913
0.000681601
0.00297534
0.00308772
0.00266015
0.00067216
0.00662526
0.00231931
0.000336529
0.00369388
0.00928944
0.00222916
0.00148453
0.00910167
0.00397852
0.00245668
0.0117523
0.0118078
0.0090241
0.00255578
0.00684477
0.00280068
0.00214539
0.00958868
0.0086979
0.00754733
0.00181977
0.00402012
0.00154763
0.00126757
0.00573064
0.00503556
0.004583
0.00102433
0.00226618
0.000836654
0.000701539
0.00317705
0.00279216
0.00257925
0.000574736
0.00138851
0.000505071
0.000416576
0.00185609
0.00168275
0.00153084
0.000359911
0.00108913
0.000402888
0.00029684
0.00136258
0.00133732
0.00111672
0.000282853
0.00103135
0.000374462
0.000271331
0.00142903
0.00137911
0.00109759
0.00023125
0.00135406
0.000293296
0.000478381
8.00138e-05
0.00131981
0.000271209
0.000481286
0.00284966
0.00080672
0.00249221
0.000732184
0.00265024
0.000876689
0.00267289
0.00294566
0.000871986
0.00279391
0.000973598
0.00274035
0.000956805
0.00300273
0.00243735
0.000731241
0.00240324
0.000871587
0.00227388
0.000802878
0.00257527
0.00186053
0.000558932
0.00185698
0.000682064
0.00173791
0.000615199
0.00198693
0.00139946
0.000411514
0.00139551
0.000506654
0.00130671
0.000454403
0.00149306
0.00106189
0.000293484
0.00104677
0.000363627
0.000984274
0.000327644
0.00112529
0.000695208
0.000163573
0.000753538
0.000254478
0.000630114
0.000188728
0.000825711
0.00878893
0.00433474
0.00206857
0.00126082
0.007387
0.00488136
0.00256267
0.116762
0.0731913
0.141052
0.143548
0.0958298
0.0945031
0.108898
0.121639
0.120602
0.142503
0.105788
0.122343
0.120839
0.106228
0.123216
0.124271
0.142734
0.106634
0.124485
0.122979
0.106818
0.122595
0.124109
0.142637
0.106744
0.123581
0.122981
0.106478
0.119797
0.11762
0.141064
0.105975
0.1114
0.12042
0.107467
0.0282353
0.0437115
0.00594388
0.0519464
0.0225706
0.0573661
0.00858282
0.00133285
0.000172727
0.000351966
7.81942e-05
0.0012978
0.000251573
0.000468392
0.00296664
0.000894555
0.00280345
0.000734541
0.00300363
0.000886761
0.00277475
0.00308347
0.000998264
0.00319509
0.000991073
0.0031373
0.000974807
0.00314171
0.00255309
0.000844204
0.00274786
0.000890074
0.00260168
0.000820554
0.00269681
0.00194813
0.000648314
0.00212181
0.000697446
0.00198664
0.000629229
0.00208051
0.00146609
0.00048005
0.0015958
0.000518393
0.00149612
0.000465114
0.00156368
0.00112142
0.000349623
0.00121248
0.000373148
0.00114761
0.00033682
0.00118544
0.000749559
0.000204574
0.000912829
0.000262788
0.000773616
0.000195249
0.000885744
0.0101969
0.00551531
0.00292057
0.00128012
0.010823
0.00528556
0.00272577
0.119834
0.111655
0.106463
0.143472
0.12038
0.107163
0.107754
0.106077
0.0994426
0.100023
0.102935
0.0990065
0.106264
0.102981
0.106503
0.0990861
0.100028
0.103123
0.0991176
0.106418
0.103209
0.106344
0.0991256
0.100026
0.103172
0.099088
0.106463
0.10308
0.112246
0.101327
0.103185
0.103041
0.10784
0.107511
0.105572
0.0331995
0.0719848
0.00959357
0.0556303
0.0353987
0.0675434
0.00915227
0.00104065
0.000290484
0.000466553
5.9169e-05
0.001217
0.000239251
0.000391513
0.00194174
0.000764376
0.00214861
0.000512204
0.0022911
0.0006082
0.00182146
0.00204456
0.000827579
0.00243787
0.000666467
0.0024022
0.000658803
0.00207342
0.00172543
0.000694644
0.00212835
0.000599386
0.00201842
0.000552903
0.00181891
0.001325
0.000530114
0.00165267
0.000467057
0.00154734
0.000419939
0.00141546
0.000995568
0.000389132
0.00124264
0.000344147
0.00116256
0.000306334
0.00106477
0.000743428
0.000277636
0.00093158
0.000245395
0.000872168
0.000216721
0.000796689
0.000443956
0.000152072
0.000649601
0.000158593
0.000538928
0.000113081
0.000540512
0.00403046
0.00360267
0.00179217
0.000837041
0.00532866
0.00284521
0.00122072
0.0282344
0.0408237
0.0532418
0.0043148
0.0578634
0.0197942
0.0087517
0.0489378
0.0855144
0.0655152
0.0133225
0.0884593
0.0466884
0.0140885
0.0518381
0.0917474
0.0662706
0.014613
0.0919383
0.0518024
0.0143002
0.0509356
0.0913844
0.0661686
0.0143074
0.0905864
0.0514459
0.0143738
0.0395579
0.0815636
0.0591455
0.0132447
0.0739604
0.0442728
0.0113876
0.0103986
0.0260726
0.00480429
0.00511072
0.0152243
0.0158245
0.00277232
0.00100597
4.38191e-05
0.000387079
0.000407759
0.000259703
0.00120872
0.000253316
0.00115888
0.000108079
0.000415168
0.000652648
0.000431894
0.00153832
0.000251868
0.00146484
0.000463594
0.000496838
0.00220758
0.00170947
0.00189689
0.000319854
0.00104168
5.93354e-05
0.00029018
0.000465625
0.00023974
0.000390148
0.00121711
0.00138394
0.000470151
0.000376315
0.00192583
0.000304335
0.00163618
0.00161947
0.00156756
0.000741751
0.000590224
0.00254581
0.000483219
0.00214787
0.00187932
0.00150637
0.000160646
0.000507254
0.000578006
0.000544846
0.00154299
0.00048823
0.00201965
0.000495907
0.000888113
0.00248183
0.00189174
0.0026576
0.000569181
0.00210336
0.000606601
0.000914535
0.00284474
0.00215185
0.00278509
0.000583075
0.0019434
0.000512924
0.000765008
0.00215022
0.000608869
0.00182324
0.00229271
0.00203046
0.00066502
0.000789384
0.00243518
0.000628124
0.0020698
0.00238781
0.00149332
0.000159741
0.000453888
0.000535052
0.000564733
0.00144021
0.000483349
0.00212276
0.000604394
0.000929118
0.00283612
0.00215023
0.00279605
0.000587417
0.00204569
0.000536865
0.000903934
0.00255961
0.00196617
0.0026726
0.000574829
0.00204595
0.00066701
0.000828231
0.00243924
0.000659369
0.00207479
0.00240366
0.00198683
0.000616296
0.000815231
0.00224367
0.000649578
0.00191449
0.0023283
0.0012239
0.000124443
0.000354055
0.000420859
0.000463441
0.0011504
0.000389981
0.00175092
0.000519836
0.000715896
0.00237495
0.0018498
0.00223929
0.000474366
0.00162652
0.000412636
0.000683213
0.0019194
0.00152548
0.00205665
0.00045662
0.00172662
0.000599801
0.000695211
0.00212957
0.00055336
0.00182006
0.00201973
0.00161889
0.000486155
0.000670941
0.00177829
0.000534549
0.001522
0.00189
0.000935132
8.73172e-05
0.000264752
0.000310659
0.000348034
0.000872996
0.00029444
0.00131788
0.000396132
0.000511589
0.00174921
0.0014079
0.00163075
0.000356255
0.00121667
0.000306948
0.000487804
0.00139594
0.0011385
0.00149453
0.000341477
0.00132603
0.000467396
0.000530566
0.00165373
0.000420324
0.00141646
0.00154848
0.0012303
0.000360266
0.000507732
0.00134215
0.000402652
0.00114976
0.00143507
0.000702263
5.76154e-05
0.000193199
0.000221761
0.000251249
0.000653361
0.000217071
0.000987504
0.000294009
0.000374717
0.00128318
0.00105219
0.00120556
0.000263964
0.000916274
0.000225539
0.000359156
0.0010586
0.000860083
0.00112036
0.000252382
0.000996459
0.000344359
0.000389472
0.00124356
0.000306558
0.00106562
0.00116357
0.000923958
0.00025826
0.000370789
0.00100837
0.000292126
0.000862561
0.00107916
0.00051279
3.70401e-05
0.000129031
0.000147189
0.000175724
0.000461153
0.000154133
0.000748288
0.000215062
0.000284366
0.00098606
0.000797044
0.000936113
0.000191827
0.000690474
0.000154435
0.000272613
0.000818658
0.000632616
0.000873969
0.000181825
0.000744238
0.000245552
0.000277886
0.000932451
0.000216886
0.00079748
0.000873099
0.000684708
0.000173329
0.000264138
0.000741455
0.000205357
0.000622819
0.000808596
0.000221585
1.62827e-05
1.04268e-05
1.40797e-05
7.65064e-05
5.64349e-05
6.43361e-05
0.000461679
0.000141399
0.000169987
0.000725655
0.000551223
0.000628708
0.000100172
0.000323865
1.13335e-05
0.000138806
0.000133291
7.06947e-05
0.000459768
7.92753e-05
0.000444498
0.000158683
0.00015219
0.000650241
0.000113163
0.000541098
0.000539546
0.000308515
1.69009e-05
0.000124746
9.94278e-05
9.21754e-05
6.9583e-05
0.000379107
0.000449278
0.000161487
0.000123496
0.000755915
8.73206e-05
0.00062823
0.000544307
0.00339654
0.000569498
0.00125278
0.00302131
0.00256582
0.00399307
0.000838087
0.0037766
0.000258051
0.00130687
0.00206922
0.00117952
0.00572901
0.000795144
0.0049766
0.00148102
0.00164484
0.00802145
0.00574174
0.00708692
0.000986344
0.00403231
0.000836273
0.00360365
0.00179187
0.00284685
0.00122043
0.00532991
0.00641932
0.00305622
0.00249172
0.020465
0.00146319
0.0109785
0.0100864
0.00508327
0.00108148
0.00173115
0.00390265
0.0038454
0.00512126
0.00168732
0.00674491
0.00162264
0.00316176
0.00867295
0.00631838
0.00913194
0.00195354
0.00696699
0.00202076
0.00322678
0.00915961
0.00692957
0.00931285
0.00200493
0.0045565
0.00104744
0.0013952
0.00336528
0.00356672
0.00427523
0.00156883
0.00634763
0.00198282