/*--------------------------------*- C++ -*----------------------------------*\
| =========                 |                                                 |
| \\      /  F ield         | OpenFOAM: The Open Source CFD Toolbox           |
|  \\    /   O peration     | Version:  2.4.0                                 |
|   \\  /    A nd           | Web:      www.OpenFOAM.org                      |
|    \\/     M anipulation  |                                                 |
\*---------------------------------------------------------------------------*/
FoamFile
{
    version     2.0;
    format      ascii;
    class       surfaceScalarField;
    location    "80";
    object      phi;
}
// * * * * * * * * * * * * * * * * * * * * * * * * * * * * * * * * * * * * * //

dimensions      [0 3 -1 0 0 0 0];

internalField   nonuniform List<scalar> 
127924
(
9.11885e-05
-1.86024e-05
-7.25794e-05
0.000537306
-0.000612714
6.21607e-05
1.32483e-05
0.000823139
-0.000822512
4.14578e-05
-4.20847e-05
0.000720587
-0.000696963
3.42976e-05
-5.79221e-05
0.000518182
-0.000491862
2.92584e-05
-5.55764e-05
0.000320864
-0.000300009
2.45179e-05
-4.53782e-05
0.000165942
-0.000149057
1.811e-05
-3.50024e-05
3.85953e-05
-2.32053e-05
1.16653e-05
-2.70678e-05
-0.00051508
6.24074e-05
0.000605711
-0.000153039
-0.000309683
0.000731742
-0.000786936
0.000334535
3.03451e-05
0.000137303
0.000875411
-0.000859492
-0.000165056
1.18344e-05
0.000260151
0.000697213
-0.000670447
-0.000300077
1.31582e-05
0.00023362
0.000499582
-0.000475196
-0.000270701
1.26917e-05
0.000173808
0.000325371
-0.000304831
-0.000204075
9.72406e-06
0.000119683
0.000181896
-0.000166408
-0.000142401
7.22765e-06
8.70759e-05
7.81396e-05
-6.78516e-05
-0.000102856
5.49098e-06
-0.00109559
0.00011585
0.00114399
-0.000164246
-0.000448571
0.00100551
-0.00102506
0.000459176
8.94933e-06
0.000326962
0.000672121
-0.000612839
-0.000309789
-7.64566e-05
0.000490214
0.000289479
-0.000261795
-0.000487547
-3.03524e-05
0.000442223
0.000141089
-0.000130507
-0.000448069
-4.73702e-06
0.000348073
8.15026e-05
-7.63884e-05
-0.000355421
2.23444e-06
0.000258835
4.72522e-05
-4.29996e-05
-0.000266554
3.46784e-06
0.0001933
1.94659e-05
-1.80151e-05
-0.00020029
5.53891e-06
-0.00140798
0.000159305
0.00141743
-0.000168762
-0.000381397
0.00127638
-0.00125157
0.000354778
1.81135e-06
0.000258098
0.000514471
-0.000406397
-0.000235392
-0.00013078
0.000447112
-0.000100536
0.000140091
-0.000417611
-6.90573e-05
0.000419728
-0.000246071
0.000245001
-0.000395981
-2.26769e-05
0.000340401
-0.000188242
0.000177416
-0.000324443
-5.13006e-06
0.000268359
-0.000102692
9.37366e-05
-0.000258707
-6.94942e-07
0.000209222
-3.64414e-05
2.79463e-05
-0.000203161
2.43285e-06
-0.0012223
0.000175699
0.00115978
-0.000113185
-0.000198827
0.00139728
-0.00135525
0.000177823
-2.10197e-05
4.83917e-05
0.000437209
-0.000303466
-1.72085e-05
-0.000164926
0.000151132
-0.000302951
0.000352113
-0.000104725
-9.55706e-05
0.000175729
-0.000470248
0.000463561
-0.00013637
-3.26705e-05
0.000172272
-0.00034716
0.000327348
-0.000144745
-7.7145e-06
0.000159544
-0.000192779
0.000176085
-0.000141055
-1.79274e-06
0.000137635
-7.02088e-05
5.58294e-05
-0.000125213
1.95718e-06
0.000839293
0.000225925
-0.000980099
-8.51145e-05
-6.31886e-05
0.00140798
-0.00137722
5.52162e-05
-2.27889e-05
-0.000192836
0.000480054
-0.000349001
0.000223281
-0.000161498
-0.000203766
-0.000248541
0.000297754
0.000244047
-8.94936e-05
-0.000134013
-0.000421149
0.000415145
0.000167197
-2.71793e-05
-5.11914e-05
-0.00031235
0.000294511
7.46152e-05
-5.58396e-06
9.33723e-06
-0.000171598
0.000156558
5.43716e-06
2.67206e-07
3.66984e-05
-6.15997e-05
4.86421e-05
-2.60862e-05
2.34542e-06
0.0012506
0.000160672
-0.00123716
-0.000174122
1.32203e-05
0.00139045
-0.00137506
-3.094e-05
2.32529e-06
-0.000413497
0.000677212
-0.000572284
0.000417935
-0.000109368
-0.000459596
6.19958e-05
-2.22483e-05
0.000463804
-4.39553e-05
-0.000333237
-0.000115537
0.000119844
0.000337587
-8.6566e-06
-0.000188191
-0.000107935
0.000102621
0.000191475
2.03042e-06
-8.35949e-05
-6.09957e-05
5.56305e-05
8.62596e-05
2.70176e-06
-2.91476e-05
-1.83846e-05
1.30577e-05
3.18069e-05
2.66868e-06
0.000842352
8.92008e-05
-0.000748202
-0.000183346
3.47969e-05
0.00131946
-0.00134378
-2.20855e-05
1.16048e-05
-0.000408111
0.000997431
-0.000927494
0.000377174
-3.90013e-05
-0.000377726
0.000520438
-0.000478372
0.000337495
-1.83434e-06
-0.000244713
0.000262737
-0.000240554
0.000212589
9.94309e-06
-0.000130395
0.00012602
-0.000114152
0.000110065
8.46252e-06
-5.6026e-05
5.41027e-05
-4.82336e-05
4.57551e-05
4.40296e-06
-2.33784e-05
2.36514e-05
-2.17367e-05
1.94351e-05
2.02829e-06
-0.000183453
4.02371e-05
-6.842e-05
0.000211633
-8.71048e-05
0.000733214
-0.000799395
7.15293e-05
8.17563e-05
-5.1481e-05
0.00100899
-0.0010014
-1.20103e-05
5.59079e-05
-1.67342e-05
0.000866976
-0.000836026
-3.79119e-05
2.36965e-05
8.34057e-06
0.000619197
-0.000587242
-3.90282e-05
-1.26614e-06
1.92625e-05
0.000384615
-0.00035902
-3.20274e-05
-1.28286e-05
1.59948e-05
0.000200094
-0.000182846
-2.20455e-05
-1.11998e-05
8.53584e-06
6.04089e-05
-4.3028e-05
-2.13656e-05
-4.55162e-06
-0.000183077
-0.000738008
-0.000155
0.0008767
0.000199385
-0.0390609
-0.00191245
-7.83376e-06
0.00043148
0.000927033
0.00215322
0.00291689
-0.00609451
-0.0033028
-0.0066065
-0.00380621
0.012051
0.0163481
0.0121143
0.0138492
-0.0337376
-0.0171105
-5.18101e-06
0.000990793
0.000580259
0.00256697
0.00172029
0.00115447
0.00213115
0.000851303
0.00179711
-0.0275909
-0.0214064
-1.43593e-06
0.00028569
-0.000123858
0.00100555
0.000319282
0.00356019
0.00353926
0.00334384
0.0033311
-0.0197534
-0.021746
2.32294e-06
-0.000131225
-0.00034393
0.000132824
-0.000197981
0.00381833
0.00354387
0.00367399
0.00341026
-0.0118586
-0.0190558
5.23518e-06
-0.000255914
-0.000348619
-0.000166951
-0.00030526
0.00326029
0.00295091
0.003167
0.00285432
-0.00152579
-0.0145258
5.60456e-06
-0.000334152
-0.000374939
-0.000270698
-0.000370569
0.00240433
0.00219211
0.00231422
0.0020965
-0.00100085
-0.00151114
-0.00095739
-0.00038762
0.00186418
-0.00239385
0.000238461
-0.000195388
-0.000227556
-0.000196036
-0.000227989
-0.00296735
-0.0032206
-0.00249109
0.000552961
0.000403252
0.0483422
-0.00814507
-6.58502e-06
0.0072468
0.00820584
0.00869639
0.0104021
0.00270861
-0.0168636
-0.0152301
-0.047269
0.0203522
-0.0132295
-5.86722e-06
0.00620492
0.0047506
0.00740891
0.0057503
0.00698928
-0.0178833
-4.08149e-06
0.00265879
0.0016596
0.00334068
0.00218474
0.00190095
-0.0195239
-5.87545e-07
0.00081153
0.000372207
0.00111543
0.000567614
0.000784356
-0.01823
3.81295e-06
0.000111752
-5.35897e-05
0.000213793
1.49884e-05
0.00017399
-0.0145745
6.17603e-06
-0.000130829
-0.000223245
-8.82287e-05
-0.000150381
0.000490813
0.000228412
0.000526382
-0.000306677
0.00285968
-0.00281395
0.000189245
7.77501e-05
4.53139e-05
6.62402e-05
5.64013e-05
-0.00412552
-0.00010793
-0.00207946
9.0086e-05
0.000582684
0.118653
0.00454531
-6.36026e-06
0.0111621
0.0129228
0.011502
0.0137101
-0.0281123
-0.0289144
-0.0611787
-0.062429
0.0686617
-0.000252486
-5.273e-06
0.00989796
0.00802965
0.010429
0.0086634
0.0385505
-0.00531318
-4.21753e-06
0.00493841
0.00346798
0.00533554
0.0038034
0.0215064
-0.00871435
-1.52991e-06
0.00183733
0.00115918
0.00196543
0.00127424
0.01162
-0.0100899
3.20897e-06
0.000534262
0.000307542
0.000569165
0.000332134
0.00137896
-0.00923282
6.64021e-06
0.000114368
4.70085e-05
0.000124194
5.82195e-05
0.00158727
0.00137762
0.00158405
-1.76334e-05
0.00272493
-0.00225501
1.10034e-05
0.000245101
0.000213425
0.000237115
0.000220044
-0.00424028
-4.61476e-05
-0.00213664
3.84378e-05
0.000636968
0.131286
0.00506472
-6.98436e-06
0.0119849
0.0143314
0.0119749
0.0144209
-0.0291839
-0.0290199
-0.0631837
-0.0631226
0.0813402
0.00923987
-4.63122e-06
0.0110484
0.00916564
0.0110945
0.00914923
0.0480941
0.00816261
-3.84911e-06
0.00577092
0.00414682
0.0057412
0.00411518
0.027929
0.00416476
-1.6992e-06
0.0022233
0.00146434
0.00216053
0.00143963
0.0153773
0.000247645
3.16004e-06
0.000695942
0.000449411
0.00065008
0.000415561
0.00195876
-0.00223943
6.99569e-06
0.000203965
0.000153458
0.000184764
0.000133155
0.00191164
0.0019428
0.00188845
6.5149e-05
0.00180147
-0.00120886
-4.79557e-05
0.000345927
0.000328441
0.000337427
0.000337178
-0.00428181
1.61256e-05
-0.00214921
-1.5731e-05
0.000646854
0.112064
0.0206776
-1.24291e-06
0.0117259
0.0138714
0.0114035
0.0132108
-0.0281765
-0.0272644
-0.0618881
-0.0605583
0.0614958
0.0229336
-3.46001e-06
0.0104565
0.00858511
0.0099513
0.00788503
0.0336586
0.0191618
-3.92061e-06
0.00521991
0.00367274
0.00471348
0.00323577
0.0189771
0.0130946
-1.21231e-06
0.00187666
0.00121586
0.00164298
0.00101742
0.0104917
0.00720658
4.02899e-06
0.000532902
0.000321467
0.000420536
0.000247627
0.00147248
0.00254852
7.52393e-06
0.000126634
9.37446e-05
7.92006e-05
5.14937e-05
0.00120486
0.00146398
0.00120389
1.43668e-05
0.000637745
-0.000228538
-2.28806e-05
0.000259619
0.000275731
0.000252904
0.000283561
-0.00419242
8.04403e-05
-0.00210092
-6.96398e-05
0.000596849
0.0343935
0.00415955
-2.13202e-06
0.0088188
0.0104166
0.00732401
0.00832153
-0.0152602
0.00404825
-0.046058
-0.0136727
0.00670233
0.00457218
0.00691374
0.00796518
0.00698028
-3.64426e-06
0.00740679
0.00552799
0.00616608
0.00448146
0.00618153
0.00671121
0.00591018
0.000440579
0.00505064
-2.15501e-06
0.00307674
0.00189088
0.00233892
0.00134757
0.00424563
0.00476105
0.00397713
-0.000115247
0.0032678
1.95124e-06
0.00089045
0.000404591
0.000544638
0.000204967
0.002708
0.00307363
0.00255442
0.000622214
0.00186335
6.94932e-06
0.000101971
-2.1083e-05
-2.12481e-05
-8.59688e-05
0.00147543
0.0017576
0.00139218
0.000381959
0.000771122
8.64184e-06
-9.52946e-05
-9.79679e-05
-0.000132846
-0.000128328
0.00012803
0.000415315
0.000169049
0.00054638
0.000714832
0.000489912
-0.000111945
-0.000183284
0.000266211
5.51718e-05
7.85116e-05
9.87842e-05
7.19882e-05
0.000106542
-0.00316863
0.00313112
-0.00417886
-0.00473508
0.00174031
0.00147077
0.00431454
0.00142584
0.00147048
0.0191414
-0.0143763
-0.00201505
0.000196074
-0.00021521
0.000236205
-0.000278066
0.0027961
0.0123664
-0.0105759
-0.00193696
0.00102384
0.00113889
0.00106091
0.00110701
0.000831778
0.00870109
-0.00692155
-0.000648495
0.000711089
0.000829233
0.000758559
0.000788923
-2.89277e-06
0.00519249
-0.00379411
-8.1303e-05
0.000452508
0.000525026
0.000481809
0.000494271
-0.000160891
0.0025391
-0.00169389
5.44026e-05
0.000260837
0.000303103
0.000279078
0.000281632
-0.000139324
0.000981962
-0.000586611
6.70929e-05
9.60664e-05
0.000128552
0.000108551
0.00011486
-9.2285e-05
-0.000318266
0.000271309
6.30207e-05
-3.31586e-05
-2.3068e-05
-3.84356e-05
-1.54933e-05
4.24062e-05
5.1424e-05
4.85429e-05
4.4017e-05
6.33611e-07
0.000125619
-1.06539e-05
-0.000115597
-1.50687e-08
0.000637211
-0.000727772
0.000102982
-1.24056e-05
-5.43736e-08
0.00100681
-0.00100098
8.9749e-06
-1.4757e-05
-1.25928e-07
0.000875773
-0.000844328
-2.38738e-05
-7.44391e-06
-1.49461e-07
0.00062647
-0.000593707
-3.06633e-05
-1.95022e-06
-1.19946e-07
0.00038727
-0.000361108
-2.67659e-05
7.23575e-07
-6.97477e-08
0.000198401
-0.000181392
-1.79227e-05
9.82701e-07
-4.14518e-09
5.46388e-05
-3.73119e-05
-1.67846e-05
-5.43664e-07
6.2196e-07
-0.000780971
-0.000106652
0.000951044
-6.40476e-05
-0.0390673
-0.00191488
0.000427193
-0.00660598
-0.00380606
-0.00609426
-0.00330302
0.0121157
0.0138501
0.0120537
0.0163498
0.000923773
0.00214965
0.00291377
-0.0337441
-0.0171101
0.000988719
0.00085113
0.00179675
0.00115333
0.0021303
0.000578566
0.00256476
0.00171812
-0.0275969
-0.0214046
0.00028537
0.00334341
0.00333058
0.00355908
0.00353814
-0.000123713
0.00100453
0.0003186
-0.0197582
-0.0217433
-0.000129972
0.00367338
0.00340965
0.00381711
0.00354274
-0.000342478
0.000133374
-0.000196952
-0.0118623
-0.019053
-0.000253434
0.00316646
0.00285386
0.00325928
0.0029501
-0.000346223
-0.000164812
-0.000302939
-0.00151163
-0.0145243
-0.000331595
0.002314
0.00209634
0.0024038
0.00219182
-0.000957793
-0.00152662
-0.00100157
-0.000372802
-0.000268135
-0.000368193
-9.97795e-07
0.00169303
-0.00212259
-0.000236661
-0.000194776
-0.000227768
-0.000193002
-0.000228859
2.92173e-08
-0.00432295
-0.00216128
0.000650337
-1.81087e-06
0.0483347
-0.00814692
0.00724368
-0.0152297
-0.0472678
0.00270978
-0.0168611
0.00820302
0.00869352
0.0103993
0.0203429
-0.0132294
0.00620235
0.00474818
0.0074065
0.00574803
0.00698039
-0.0178826
0.00265684
0.00165796
0.00333869
0.00218285
0.00189433
-0.0195229
0.000811042
0.000372272
0.00111452
0.000567239
0.000780445
-0.0182285
0.000113209
-5.17298e-05
0.000214981
1.67661e-05
0.00022823
-0.0145741
-0.000128275
0.000526264
0.000173714
0.000490976
-0.000220811
-8.5639e-05
-0.000148032
-1.02447e-06
0.00252504
-0.00242721
-0.0001873
8.80966e-05
7.14597e-05
9.16446e-05
6.75372e-05
1.89555e-09
-2.84893e-06
0.00143571
2.32206e-06
1.85974e-07
0.118642
0.00454522
0.0111588
-0.0611773
-0.0624273
-0.0281087
-0.0289102
0.0129199
0.0114976
0.0137068
0.0686492
-0.000252449
0.00989547
0.00802743
0.0104266
0.00866117
0.0385391
-0.00531381
0.00493631
0.00346593
0.00533354
0.00380137
0.0214981
-0.00871527
0.00183613
0.00115843
0.00196396
0.00127341
0.011616
-0.0100906
0.000535064
0.000308989
0.000569813
0.000333547
0.00137764
-0.00923383
0.000116787
0.00158402
0.00137935
0.00158784
4.93972e-05
0.000126744
6.06142e-05
-1.20532e-06
0.00234477
-0.00192207
-8.79987e-06
0.000252984
0.000229382
0.000255544
0.000227042
3.83765e-09
-4.45638e-07
0.00144267
4.09067e-07
-2.24526e-08
0.131272
0.00506741
0.0119786
-0.0631814
-0.0631204
-0.0291795
-0.0290148
0.0143278
0.0119698
0.0144182
0.0813267
0.00923967
0.011046
0.00916355
0.0110923
0.00914724
0.0480818
0.00816082
0.00576904
0.00414481
0.00573934
0.00411323
0.0279199
0.00416208
0.00222205
0.00146336
0.0021589
0.00143859
0.0153731
0.000244582
0.00069655
0.000450736
0.000650658
0.000416965
0.001943
-0.00224235
0.000206408
0.00188855
0.00195929
0.00191243
0.000155888
0.000187314
0.000135731
-1.34111e-06
0.00156003
-0.00106734
5.04439e-05
0.000353293
0.000347366
0.000355632
0.000344934
2.92116e-09
2.77843e-07
0.00144258
-2.88798e-07
-1.30811e-08
0.11205
0.0206781
0.0117262
-0.0618859
-0.0605563
-0.0281713
-0.0272602
0.0138705
0.0114046
0.0132102
0.061483
0.0229324
0.0104549
0.00858328
0.00994977
0.00788314
0.0336471
0.019159
0.00521794
0.00367078
0.00471142
0.00323364
0.0189686
0.0130904
0.00187531
0.00121508
0.00164185
0.00101677
0.0104871
0.00720181
0.000533852
0.000323208
0.000421731
0.000249535
0.00146413
0.00254407
0.000129373
0.00120378
0.0014729
0.00120519
9.65766e-05
8.20777e-05
5.42341e-05
-1.39606e-06
0.000593188
-0.00026773
2.55264e-05
0.000264859
0.000292473
0.000266875
0.000290356
9.32837e-10
2.34699e-06
0.00143161
-1.96944e-06
2.0444e-07
0.0343841
0.00457296
0.00881878
-0.0460568
-0.0136717
-0.0152579
0.00404988
0.006914
0.00416037
0.00670255
0.0104157
0.00732346
0.00832053
0.00795499
0.00671113
0.00740525
0.00591002
0.00697997
0.00618082
0.00552607
0.00616467
0.00447998
0.000431126
0.00476061
0.00307508
0.00397676
0.00504953
0.00424445
0.00188948
0.00233785
0.00134701
-0.000122417
0.00307298
0.000890316
0.00255357
0.0032662
0.00270619
0.000405158
0.000545244
0.000206316
0.000617868
0.00175674
0.000103995
0.00139138
0.00186163
0.00147372
-1.82818e-05
-1.82249e-05
-8.2445e-05
0.00041525
0.000714052
-9.18715e-05
0.000168776
0.000381914
0.000127666
0.000489201
0.000769463
0.000544916
-9.48166e-05
-0.000129099
-0.000124845
-1.52597e-06
-9.74039e-05
0.000160441
-5.22964e-05
8.63962e-05
0.000116604
8.86258e-05
0.000114419
3.4699e-07
0.00431217
-0.00539169
-0.00597065
-0.000177583
0.00145751
0.00431083
0.00145907
1.90642e-07
0.0156584
-0.0123108
0.0020143
7.62133e-05
-0.000472409
-3.99909e-06
-0.000388887
1.39223e-07
0.0110556
-0.00983745
0.00193653
0.000881494
0.000902071
0.000827407
0.000945314
-7.70351e-07
0.00835969
-0.00675947
0.000649939
0.000615091
0.000641768
0.000584781
0.000669576
-1.89621e-06
0.0051633
-0.00381042
8.48699e-05
0.000401196
0.000417401
0.000386705
0.000431828
-2.7979e-06
0.00257673
-0.00172501
-4.9235e-05
0.000234482
0.000243513
0.00022711
0.000251958
-2.94485e-06
0.000996584
-0.00057766
-6.17015e-05
8.25788e-05
9.70378e-05
7.97004e-05
0.00010048
-2.21597e-06
-0.00023059
0.000234697
-5.89434e-05
-2.7596e-05
-6.58627e-06
-2.6308e-05
-9.06756e-06
3.21195e-05
3.10844e-05
3.04434e-05
3.29609e-05
0.000179597
2.66442e-05
-6.78795e-05
-0.000138364
8.75589e-05
0.000744458
-0.000809634
6.25814e-05
-8.49651e-05
5.15267e-05
0.00101064
-0.00100335
-1.91297e-05
-3.96865e-05
1.66198e-05
0.000867015
-0.000836183
-4.40876e-05
-3.36399e-06
-8.49863e-06
0.00061877
-0.000586996
-4.37468e-05
2.04703e-05
-1.93903e-05
0.000384867
-0.000359316
-3.5361e-05
2.91997e-05
-1.60628e-05
0.000201276
-0.000183779
-2.53392e-05
2.38988e-05
-8.50492e-06
6.12869e-05
-4.43241e-05
-2.28691e-05
1.44052e-05
0.000182675
-0.000722083
-0.000163736
0.00085273
-0.00014959
-0.00606174
0.0139845
-0.0150102
0.00808854
-4.65538e-05
-0.000224694
-0.000162196
-0.0001405
0.00159533
0.0146454
-0.0133261
-0.00211206
7.3516e-05
1.3827e-05
-2.01747e-05
0.000119032
0.00415319
0.0117884
-0.0100942
-0.0053395
-5.91844e-05
-5.50029e-05
-0.000100899
-7.44596e-06
0.00430005
0.00852482
-0.00694517
-0.00560216
-0.000107289
-9.75242e-05
-0.00012238
-8.03406e-05
0.00362325
0.00558638
-0.00430185
-0.00479152
-9.56982e-05
-8.88748e-05
-0.000100524
-8.46008e-05
0.00277124
0.00322052
-0.00227645
-0.00373589
-8.03779e-05
-7.60607e-05
-8.01291e-05
-7.44197e-05
0.00038602
0.00209034
0.00151071
-0.00282548
-0.000189537
-0.000216721
-0.000186028
-0.000218781
-9.51507e-05
-7.99688e-05
-9.16676e-05
-8.37172e-05
0.00296769
-0.00407534
-0.00407929
0.00276022
-0.00410247
0.00119786
0.00418885
0.00114248
-0.00782955
0.0157552
-0.00901927
0.00607093
0.000787079
0.000338479
0.000676384
0.000464412
0.00313025
0.00556027
-0.00395621
-0.00278343
0.00104055
0.00107422
0.00095068
0.00118602
0.00629563
0.0026667
-0.00207987
-0.0059652
0.000405381
0.000461075
0.000362739
0.000510361
0.00649263
0.00152978
-0.00119048
-0.0064131
8.43319e-05
0.000109862
7.02238e-05
0.00012778
0.00557208
0.000890411
-0.000634028
-0.00565838
-2.02488e-05
-8.70372e-06
-2.3849e-05
-4.06326e-06
0.00438585
0.00041842
-0.000211368
-0.00455117
-4.51179e-05
-3.98162e-05
-4.66423e-05
-3.84109e-05
0.000304969
0.00335631
4.09474e-05
-0.00349062
1.62904e-05
1.58833e-05
3.62507e-05
-4.96413e-06
-6.66957e-05
-6.76514e-05
-7.40426e-05
-6.66455e-05
0.00412563
-0.00116283
-0.00514586
0.00107583
-0.00593186
0.00142781
0.0041665
0.00144478
-0.00517137
0.00757037
-1.2472e-05
0.00473875
0.00128553
0.000715109
0.00119859
0.000834271
0.00226208
-0.00404438
0.00549052
-0.000882984
0.00171887
0.00181479
0.00163296
0.00190362
0.00519526
-0.00634987
0.0059446
-0.00347345
0.000864117
0.000946749
0.000799214
0.00100969
0.00580856
-0.00549978
0.00462737
-0.00432871
0.000284249
0.000334772
0.000265895
0.000343778
0.00526548
-0.00383631
0.00299617
-0.00417795
6.34242e-05
8.2402e-05
5.89894e-05
8.28648e-05
0.004342
-0.00229508
0.00166935
-0.00362467
2.29107e-06
1.0096e-05
3.61895e-06
9.19457e-06
1.58869e-05
0.00334449
-0.00118401
-0.00286301
0.000183274
0.000188695
0.000207482
0.000165061
-1.16939e-05
-1.58497e-05
-1.25675e-05
-1.77553e-05
0.00424036
-0.00053155
-0.00517341
0.00046279
-0.00631659
0.00152481
0.00425956
0.00153403
-0.00338641
0.00571499
0.00297611
0.00193391
0.0014412
0.000928945
0.00143631
0.000933535
-0.000227114
-0.00788096
0.00953234
0.0013369
0.00197114
0.00217202
0.0019607
0.00218099
0.00160069
-0.0103864
0.00962275
0.000480948
0.00103058
0.00119542
0.00102621
0.00119887
0.0025156
-0.00877327
0.00736212
-0.000458295
0.000356954
0.00043411
0.000354835
0.000430005
0.00278973
-0.00608913
0.00474616
-0.00119019
9.9343e-05
0.000123138
9.64788e-05
0.000121034
0.00267937
-0.00361398
0.00260194
-0.00156228
2.17638e-05
2.93993e-05
2.24193e-05
2.77901e-05
-6.69933e-05
0.0022265
-0.00180195
-0.0014749
0.000263007
0.00029353
0.000297843
0.000257703
5.63648e-06
-9.83936e-07
4.47124e-06
-3.86516e-06
0.00428176
0.000246625
-0.00520153
-0.000336105
-0.00632403
0.00152777
0.00427453
0.00153097
-0.000690284
0.00649995
0.00137122
-0.000198702
0.0014268
0.000942841
0.0014531
0.000921268
-0.00249951
-0.00557521
0.00694108
0.00371899
0.00183993
0.00209412
0.0018797
0.00205579
-0.00249943
-0.00774636
0.00721257
0.00421163
0.000909848
0.00111125
0.000946144
0.00107228
-0.00150947
-0.00667186
0.00563031
0.00312103
0.000287306
0.000366831
0.00030022
0.000350962
-0.000345806
-0.00473864
0.00372681
0.00158786
6.46552e-05
8.8765e-05
6.86375e-05
8.15883e-05
0.000481397
-0.00286649
0.00207417
0.000397056
8.95444e-06
1.33762e-05
9.34751e-06
1.15804e-05
-1.64055e-05
0.000743275
-0.00144597
-0.000155333
0.000200406
0.000246215
0.000228365
0.00021426
2.92514e-08
-7.45611e-06
4.56133e-07
-7.82917e-06
0.00419238
0.000863044
-0.00521593
-0.000927599
-0.00594265
0.00143588
0.0041639
0.00143098
-0.00012339
0.0130805
-0.00750733
0.00027541
0.000942813
0.000616068
0.00101048
0.000524218
-0.00524971
0.00430832
-0.00276101
0.00583916
0.00117146
0.00147068
0.00128036
0.00134599
-0.00562328
0.00131327
-0.000559977
0.00585329
0.000430164
0.00062031
0.000502411
0.000538904
-0.0042135
-0.000140656
0.000499814
0.0042886
7.86296e-05
0.000152977
0.000111994
0.000112484
-0.00240781
-0.000724442
0.000771995
0.00253235
-2.69739e-05
-5.51784e-06
-1.35137e-05
-2.20833e-05
-0.00100171
-0.000721036
0.000588955
0.00116404
-3.26396e-05
-2.78833e-05
-2.69532e-05
-3.46356e-05
0.000109581
-0.000285694
-0.000433335
0.000445818
4.58309e-05
8.28216e-05
5.8662e-05
6.82447e-05
-2.25271e-05
-2.40512e-05
-1.84244e-05
-2.69163e-05
0.00316888
0.00365904
-0.0023053
-0.00244903
-0.00207358
-0.0014699
0.000244249
0.0207221
-0.0193579
9.08821e-05
-0.00027707
9.75931e-05
-0.000269297
7.72e-05
4.24107e-05
0.000246069
-0.000146322
-0.00279583
-0.00591249
0.016569
-0.0135267
0.000994709
0.00102845
0.000973179
0.0010184
0.000293593
0.000553011
0.00042151
0.000383092
-0.000833073
-0.00538235
0.0104906
-0.0079288
0.000838484
0.000876614
0.000797496
0.000901334
8.88555e-06
0.000127544
4.87872e-05
5.45328e-05
-4.08663e-07
-0.00375083
0.00573964
-0.0040289
0.000562951
0.000585414
0.000530937
0.000610688
-7.01432e-05
-4.61165e-05
-7.02085e-05
-6.30054e-05
0.000156086
-0.00219207
0.00268272
-0.00172902
0.00031807
0.00034187
0.000309434
0.00035084
-5.37855e-05
-6.23294e-05
-6.40257e-05
-5.77712e-05
0.000134629
-0.00101971
0.0010456
-0.000624493
0.000141759
0.000158068
0.000135642
0.000163115
-2.92367e-05
-3.74355e-05
-3.65279e-05
-3.14003e-05
8.89577e-05
-0.000436307
0.000361015
-6.37501e-05
-4.1587e-05
-5.35982e-05
-5.38098e-05
6.9966e-05
6.76311e-05
6.39722e-05
7.26828e-05
-1.62341e-05
-2.12371e-05
-2.06476e-05
-1.70592e-05
0.000441343
6.86397e-05
2.73231e-05
-0.000418328
5.571e-05
-0.000152462
-0.000722908
0.000382323
-0.000341493
0.000650132
3.19498e-05
-0.000145368
2.91397e-05
-6.72262e-05
-0.000744192
9.12328e-05
-9.0451e-05
0.000661738
8.16726e-05
0.000722032
0.000176341
-0.000142137
-0.000596172
-0.000160066
-0.013778
0.0115762
0.0014822
-0.000495685
-0.000336164
-0.000426614
-0.000442029
-0.00168922
-0.00145009
-0.00143103
-0.00172459
0.00220023
0.00218248
0.00221066
0.00212168
0.00081766
4.28114e-05
-3.73331e-05
-0.000279602
-0.000780483
2.74957e-05
-0.000899015
-0.000103349
7.71704e-05
0.000904281
2.09137e-05
-8.43427e-05
-0.000809496
6.25419e-05
-0.00101065
5.6806e-05
-4.53753e-05
0.00100604
-6.81707e-06
-0.0162562
0.00606087
0.000577134
-0.000269032
-0.000239756
-0.000319607
-0.000201691
-0.000661449
-0.000895895
-0.000884196
-0.000688176
-0.0169988
0.00154717
0.000601065
-0.000234461
-0.000164976
-0.000217914
-0.000165638
-0.000214484
-0.000104062
-6.18092e-05
-0.000242347
0.000739965
3.59417e-05
-5.53206e-05
0.000107029
-0.00088723
1.84892e-05
-0.000739108
-0.000256928
0.000212638
0.000763645
1.97515e-05
-3.96031e-05
-0.00100335
-1.91817e-05
-0.000867016
2.10083e-05
-7.68703e-06
0.000893597
-3.9901e-05
-0.0161882
-0.00159711
0.000267921
-0.000180434
-0.000116215
-0.00017105
-0.000150828
0.000340813
0.000236605
0.000260492
0.000299259
-0.0146978
-0.00334263
0.000381129
-0.000151983
-0.000165108
-0.000176468
-0.000123302
0.000529931
0.000508532
0.000552489
0.000497065
0.0005427
3.04732e-05
-5.49892e-05
0.000215791
-0.000712303
1.75539e-05
-0.000534116
-0.000240331
0.000199038
0.000558517
1.68892e-05
-3.44906e-06
-0.000836127
-4.41744e-05
-0.000618704
-5.87604e-06
1.81302e-05
0.000649875
-4.34247e-05
-0.0128178
-0.00415508
0.000348677
-0.000162881
-0.000128569
-0.000137063
-0.000166936
0.000636816
0.000626181
0.00065427
0.000604526
-0.0108765
-0.00437256
0.000398035
-0.000127573
-0.000160297
-0.000147471
-0.000131997
0.000676898
0.000621571
0.00064804
0.000654032
0.000342734
2.35221e-05
-4.53956e-05
0.000193289
-0.000508238
1.44514e-05
-0.000347026
-0.00018157
0.00014844
0.00036809
1.20622e-05
2.03448e-05
-0.00058689
-4.38182e-05
-0.000384779
-1.85923e-05
2.86986e-05
0.000411538
-3.68641e-05
-0.00894591
-0.00430226
0.000322199
-0.00011795
-0.000112736
-0.000101203
-0.000135077
0.000620105
0.000639262
0.000656213
0.000600854
-0.007165
-0.00400071
0.000303461
-8.34725e-05
-0.000115083
-9.54756e-05
-9.8832e-05
0.000601347
0.000552594
0.000566808
0.000588438
0.000183267
1.87361e-05
-3.60655e-05
0.00014184
-0.000324982
9.92146e-06
-0.00019321
-0.000125821
0.000101595
0.000209544
7.88928e-06
2.91051e-05
-0.000359206
-3.54133e-05
-0.000201168
-1.71023e-05
2.50652e-05
0.000220896
-2.76922e-05
-0.00555414
-0.00362534
0.000248788
-7.07653e-05
-7.83953e-05
-6.15949e-05
-9.00395e-05
0.000505824
0.000527544
0.000537185
0.000495913
-0.00412872
-0.00320719
0.000216341
-4.75864e-05
-7.37902e-05
-5.53822e-05
-6.45031e-05
0.000469472
0.000433484
0.000441807
0.000461906
5.40574e-05
1.22259e-05
-2.76983e-05
9.66624e-05
-0.000176722
6.53101e-06
-8.25299e-05
-9.0024e-05
7.39592e-05
9.37898e-05
4.8047e-06
2.38564e-05
-0.000183674
-2.53564e-05
-6.12032e-05
-9.86717e-06
1.62045e-05
7.91122e-05
-2.42449e-05
-0.0029339
-0.0027726
0.000228956
-4.60226e-05
-5.62619e-05
-4.13353e-05
-6.26375e-05
0.000384376
0.000392433
0.000401106
0.000377154
-0.00192779
-0.00243085
0.000215702
-3.579e-05
-5.57934e-05
-4.04619e-05
-4.94859e-05
0.000355615
0.000340279
0.000343972
0.000350685
-1.35153e-05
1.43723e-05
-8.77529e-07
7.1665e-05
-7.15114e-05
4.39103e-06
-4.00895e-05
1.24343e-05
1.09963e-05
1.66521e-05
1.44487e-05
-4.4258e-05
-2.28575e-05
-3.6838e-06
6.42421e-06
-2.50256e-05
2.22712e-05
-0.00208983
0.000247811
-5.3557e-05
-5.5824e-05
-4.28235e-05
-6.91426e-05
0.000291655
0.00030641
0.000308691
0.000287099
-0.000268048
-0.000261991
-0.000261717
-0.000266539
-7.24627e-05
2.7376e-05
-2.97014e-05
5.73384e-05
1.74482e-05
0.000658263
0.000416781
3.90235e-05
-0.00104194
0.000105852
-0.000159501
-0.000951177
0.000603064
-0.000580481
0.000877012
5.15831e-05
-0.000150403
-0.000163386
0.000852743
0.0158058
-0.0139793
0.00172078
-0.000586674
-0.000471987
-0.000556478
-0.000422956
0.00258625
0.00236922
0.00237764
0.0027339
0.00407571
0.00283152
-0.00178627
-0.00291729
-0.00220368
-0.0154383
0.0170092
0.000763057
-0.000776957
-0.000507005
-0.000579524
-0.000873564
0.00319893
0.00527284
0.00397672
0.00376048
0.000884995
-0.000127296
1.43645e-05
-0.000436005
-0.000979817
1.60744e-05
-0.000701589
-0.000277391
0.000268674
0.000761218
-5.09135e-05
-0.0150062
0.00808925
-4.58141e-05
-0.000223497
-0.000161213
-0.000139428
0.00197088
-0.0146414
9.60161e-05
-2.7603e-05
-2.47554e-05
9.48791e-05
-0.0135333
0.0078311
0.000112708
0.000111411
-4.00326e-05
0.000322213
-0.0115624
0.000801745
0.000412774
0.000636755
0.000413498
0.000652136
0.00072237
-0.000296474
1.43879e-05
0.000317894
-0.00064816
-4.43605e-05
-0.000345554
-0.000487534
0.000475642
0.000380581
-2.3136e-05
-0.0133225
-0.00211284
7.38699e-05
1.41912e-05
-1.98854e-05
0.000119431
-0.00430545
-0.0117844
6.57597e-05
-5.9128e-05
-9.49421e-06
7.73822e-06
-0.00975042
-0.00313067
0.000331151
0.000574685
0.00037794
0.000489008
-0.00816581
-0.00539024
0.000273006
0.00032538
0.000210555
0.000411516
0.000522542
-0.000278062
1.4768e-05
0.000478026
-0.000318109
-1.52569e-05
-0.000193022
-0.000452845
0.000439682
0.000206267
-8.35311e-08
-0.0100903
-0.00534092
-5.91868e-05
-5.50354e-05
-0.000101
-7.35846e-06
-0.00568089
-0.00852095
-6.51651e-05
-0.000125853
-9.44648e-05
-9.9374e-05
-0.00676157
-0.00629692
7.00981e-05
0.000218586
0.000128442
0.00014016
-0.00559034
-0.00664833
2.12402e-05
2.97793e-05
-1.32233e-05
7.7679e-05
0.000344836
-0.000212725
1.16881e-05
0.000429101
-0.000180812
9.10971e-07
-0.000119475
-0.000360684
0.000348347
0.0001263
5.51148e-06
-0.00694172
-0.00560398
-0.000107565
-9.7845e-05
-0.00012273
-8.06143e-05
-0.0052698
-0.00558319
-9.61899e-05
-0.000120682
-0.000103813
-0.000112715
-0.00447693
-0.00649423
-5.22734e-05
9.826e-06
-2.30817e-05
-2.4825e-05
-0.00357758
-0.00612367
-6.28683e-05
-6.15028e-05
-7.94814e-05
-3.96222e-05
0.000197152
-0.000149557
8.47758e-06
0.000335898
-0.000112018
4.71756e-06
-6.8107e-05
-0.000269931
0.000258818
7.37509e-05
5.46976e-06
-0.00429925
-0.00479373
-9.61523e-05
-8.93186e-05
-0.00010098
-8.50233e-05
-0.00429042
-0.0032182
-8.1051e-05
-9.16881e-05
-8.39378e-05
-8.97686e-05
-0.00270364
-0.00557408
-7.72511e-05
-5.22076e-05
-6.56908e-05
-6.53983e-05
-0.00199905
-0.00501792
-7.16295e-05
-7.05355e-05
-7.91405e-05
-6.10387e-05
8.86113e-05
-0.000106426
5.92847e-06
0.000247885
-6.19979e-05
4.84271e-06
-2.7461e-05
-0.000199149
0.000189523
3.1216e-05
5.87092e-06
-0.00227469
-0.0037376
-8.08172e-05
-7.64783e-05
-8.0518e-05
-7.48568e-05
-0.0032674
-0.00150943
-7.3183e-05
-7.68496e-05
-7.2185e-05
-8.14188e-05
-0.00134327
-0.00438757
-7.52404e-05
-6.26109e-05
-6.92962e-05
-6.93478e-05
-0.000821106
-0.00385392
-7.60932e-05
-7.83726e-05
-8.18389e-05
-6.99022e-05
9.98391e-06
-6.47928e-05
1.47128e-05
0.000183843
-2.4628e-05
6.62489e-06
-0.000168278
0.000158946
7.84047e-06
1.49185e-06
-0.00282518
-9.53893e-05
-8.02113e-05
-9.1867e-05
-8.39725e-05
-0.000189364
-0.000216497
-0.000218558
-0.000185821
2.86404e-05
-3.06888e-05
1.50261e-05
-8.54403e-05
-0.00335607
0.000472746
-0.000100801
-8.77446e-05
-9.27084e-05
-9.5677e-05
-0.000118698
-7.06282e-05
-8.61863e-05
-0.000110513