/*--------------------------------*- C++ -*----------------------------------*\
| =========                 |                                                 |
| \\      /  F ield         | OpenFOAM: The Open Source CFD Toolbox           |
|  \\    /   O peration     | Version:  2.4.0                                 |
|   \\  /    A nd           | Web:      www.OpenFOAM.org                      |
|    \\/     M anipulation  |                                                 |
\*---------------------------------------------------------------------------*/
FoamFile
{
    version     2.0;
    format      ascii;
    class       volVectorField;
    location    "80";
    object      U;
}
// * * * * * * * * * * * * * * * * * * * * * * * * * * * * * * * * * * * * * //

dimensions      [0 1 -1 0 0 0 0];

internalField   nonuniform List<vector> 
43096
(
(0.00151447 -0.00287958 -0.00795678)
(-0.0502014 0.00296939 -0.000745138)
(-0.0714012 0.00237335 -0.0032459)
(-0.0614781 0.00208904 -0.00396035)
(-0.0437825 0.00170513 -0.00367023)
(-0.0267954 0.00143494 -0.00285816)
(-0.0136316 0.000954435 -0.00238401)
(-0.00273254 0.000198979 -0.00193313)
(0.000964685 0.0485905 -0.0106817)
(-0.0560014 0.0237349 0.00185511)
(-0.063747 -0.0111212 0.000654389)
(-0.0501917 -0.0206262 0.000803962)
(-0.0357702 -0.0185759 0.000793193)
(-0.0231221 -0.0139183 0.000624017)
(-0.0127684 -0.00964952 0.000472681)
(-0.00534228 -0.00697955 0.000378308)
(0.00586834 0.0971391 -0.0127919)
(-0.0751298 0.0332814 -8.36735e-06)
(-0.0471389 -0.0236142 -0.00497316)
(-0.0201503 -0.0360366 -0.00201752)
(-0.00993961 -0.0327757 -0.000314761)
(-0.00579446 -0.0259013 0.000169947)
(-0.0033118 -0.0193453 0.000251769)
(-0.00135333 -0.0144786 0.000400477)
(0.0102601 0.122829 -0.0173069)
(-0.0934585 0.0269142 -0.00112678)
(-0.0337195 -0.0183645 -0.00911263)
(0.00899336 -0.0319418 -0.00515948)
(0.0181154 -0.0300758 -0.00170331)
(0.0134351 -0.024486 -0.000412861)
(0.00720044 -0.0193992 -6.62922e-05)
(0.00237359 -0.0151679 0.000171312)
(0.0131777 0.103403 -0.0151228)
(-0.10179 0.013709 -0.00304898)
(-0.0271166 -0.00253973 -0.0120235)
(0.0241593 -0.00949374 -0.00767609)
(0.0344129 -0.011551 -0.00246766)
(0.0247891 -0.0116749 -0.00060883)
(0.013527 -0.0110459 -0.000149095)
(0.00462578 -0.00964987 0.000132542)
(0.0157804 -0.0793178 -0.0128889)
(-0.103022 0.00415199 -0.00308058)
(-0.0303396 0.0152164 -0.0116182)
(0.0201943 0.0164664 -0.00698104)
(0.0308397 0.0110842 -0.00214499)
(0.0223124 0.00467364 -0.000506212)
(0.0120366 -8.13399e-05 7.02394e-05)
(0.00404499 -0.00227239 0.000172539)
(0.00953094 -0.108036 -0.0180087)
(-0.102186 -0.00162911 -0.00127454)
(-0.0457882 0.030743 -0.00756561)
(-0.0029481 0.0341451 -0.00337602)
(0.00872748 0.0247921 -0.000871648)
(0.00775546 0.0140496 1.54881e-05)
(0.00428092 0.00630685 0.000150094)
(0.00114988 0.00227708 0.000173894)
(0.0034436 -0.068196 -0.0143666)
(-0.0982706 -0.00196543 5.06917e-05)
(-0.0706159 0.0292484 -0.00260257)
(-0.0365641 0.0265256 -0.000215522)
(-0.0184155 0.0169269 0.00064493)
(-0.00877741 0.00888986 0.00059279)
(-0.00373385 0.00376257 0.000327679)
(-0.0016566 0.00158262 0.000161031)
(0.00129697 -0.00628205 0.0172324)
(-0.056446 0.00357371 0.00632907)
(-0.0738923 -0.000933143 0.00400915)
(-0.0625453 -0.00231888 0.00153606)
(-0.0442895 -0.00239247 -0.000332169)
(-0.0272892 -0.00206269 -0.00116899)
(-0.0140453 -0.00151688 -0.000984879)
(-0.00379867 -0.00158976 -0.000478807)
(-0.00959277 0.0591332 0.0141807)
(-0.0408412 0.021979 -0.0110461)
(-0.0351557 -0.0104759 -0.00720552)
(-0.0303101 -0.0189483 -0.00244561)
(-0.0234456 -0.0196468 -0.000237476)
(-0.0153669 -0.0169392 0.000578998)
(-0.00822302 -0.0126929 0.000952678)
(-0.00485843 -0.00867544 0.00136894)
(-0.10786 0.182884 0.129625)
(0.063608 -0.0218016 -0.0475975)
(0.0277428 -0.0209909 -0.0268455)
(0.0110772 -0.0226174 -0.0108673)
(0.00305072 -0.0229182 -0.00366921)
(0.000570647 -0.0204232 -0.000819303)
(0.000706226 -0.0156881 0.000279681)
(0.000757119 -0.0114631 0.00113373)
(-0.179588 0.0607216 0.213402)
(0.145875 0.00599035 -0.0633401)
(0.0854514 -0.00435211 -0.0393393)
(0.0486846 -0.0117861 -0.018239)
(0.0273472 -0.0149437 -0.00703076)
(0.0149285 -0.0149847 -0.00226578)
(0.00781751 -0.0123917 -0.00056625)
(0.00426606 -0.00979614 0.000148991)
(-0.191371 0.0457811 0.232196)
(0.156777 0.0043478 -0.0649676)
(0.0996337 0.00424999 -0.0415336)
(0.059736 0.00152088 -0.0200255)
(0.0350849 -0.00201778 -0.00801252)
(0.0197944 -0.00466378 -0.00271204)
(0.0105864 -0.00533535 -0.000810727)
(0.00630126 -0.00586916 -0.000190348)
(-0.193851 0.0301593 0.234567)
(0.140157 0.00430752 -0.0645622)
(0.0774737 0.0134113 -0.0392998)
(0.0425134 0.0143033 -0.0177235)
(0.0237413 0.0101283 -0.00666633)
(0.0133007 0.00508908 -0.00209874)
(0.00712992 0.000962596 -0.000571527)
(0.00498487 -0.00155151 -5.93211e-05)
(-0.183458 0.0126904 0.216845)
(0.050519 0.0387837 -0.0484896)
(0.0124282 0.032411 -0.0261007)
(0.00159943 0.022953 -0.00980479)
(-0.000771414 0.0150274 -0.0029864)
(4.2971e-05 0.00851705 -0.000581705)
(0.000742524 0.00342421 0.000155046)
(0.00159798 0.00102289 0.000340828)
(-0.201971 -0.476188 0.142454)
(-0.0613793 0.00217408 -0.00953087)
(-0.0461265 0.02355 -0.0109957)
(-0.0311944 0.0171961 -0.00362287)
(-0.0177931 0.0111129 -0.000375459)
(-0.0082401 0.006419 0.000374202)
(-0.00301704 0.00271248 0.000406937)
(-0.000679411 0.00105973 0.000327185)
(0.0046399 -0.00381251 -0.00994383)
(-0.05045 0.00547702 -0.000364448)
(-0.0738471 0.00025233 -0.000545737)
(-0.0632091 -0.00152101 -0.000295096)
(-0.0448205 -0.00194011 -9.70973e-05)
(-0.0274773 -0.00177798 4.67942e-06)
(-0.0139339 -0.00128039 1.6614e-05)
(-0.0033827 -0.00129949 -3.64629e-05)
(-0.00655938 0.063429 -0.00262882)
(-0.0408472 0.0219761 0.0110304)
(-0.0351623 -0.0104753 0.00719511)
(-0.0303163 -0.0189461 0.00244252)
(-0.0234511 -0.0196435 0.000242008)
(-0.015371 -0.016936 -0.000568555)
(-0.00822621 -0.0126912 -0.000941465)
(-0.00482463 -0.0078631 -0.000497668)
(-0.187757 0.231839 0.0342576)
(0.0636021 -0.0218031 0.0475847)
(0.0277339 -0.0209904 0.026834)
(0.0110675 -0.0226161 0.0108586)
(0.00304316 -0.0229164 0.00366733)
(0.000565293 -0.0204208 0.000826592)
(0.000703942 -0.0156869 -0.000267603)
(0.0010569 -0.0100605 -0.00038106)
(0.378182 0.000780037 0.000104655)
(0.145865 0.00598766 0.0633283)
(0.0854392 -0.00435222 0.039329)
(0.0486723 -0.0117861 0.01823)
(0.0273372 -0.0149437 0.00702695)
(0.0149222 -0.0149842 0.00227162)
(0.00781613 -0.012392 0.000579095)
(0.00431955 -0.00832855 -2.2222e-05)
(0.379629 0.000186214 6.96018e-05)
(0.156764 0.0043509 0.0649558)
(0.0996206 0.00425035 0.0415249)
(0.0597227 0.00151974 0.0200174)
(0.035074 -0.00201954 0.00800828)
(0.0197876 -0.00466558 0.00271761)
(0.0105852 -0.00533689 0.000823346)
(0.00632746 -0.00514499 0.000144617)
(0.379608 -1.77338e-05 7.10955e-05)
(0.140144 0.0043093 0.06456)
(0.0774603 0.0134105 0.0392929)
(0.042501 0.014301 0.0177149)
(0.0237313 0.0101249 0.00666293)
(0.0132939 0.00508493 0.00210612)
(0.007128 0.000958771 0.000586152)
(0.00500516 -0.00157311 8.17616e-05)
(0.377436 -0.000503477 0.000113431)
(0.050511 0.038784 0.0484852)
(0.0124177 0.0324095 0.0260935)
(0.00158941 0.0229497 0.00979962)
(-0.000779563 0.0150227 0.00298954)
(3.72307e-05 0.00851194 0.000595378)
(0.000739796 0.00341935 -0.000138022)
(0.00182162 0.000569745 -8.02937e-05)
(-0.319032 -0.589981 -0.00130585)
(-0.0526146 0.00159203 0.00743092)
(-0.0427665 0.0206698 0.00556421)
(-0.0305779 0.0149472 0.00188268)
(-0.0179737 0.00978251 0.000325362)
(-0.00846414 0.00573578 -8.15089e-05)
(-0.00305515 0.00234445 -0.000153608)
(-0.00049864 0.000766977 -0.000137009)
(0.000599228 -0.00621487 -0.0139408)
(-0.057218 0.00301796 -0.00639705)
(-0.0740078 -0.00134471 -0.00348409)
(-0.0625409 -0.00264868 -0.000858163)
(-0.0442573 -0.00266146 0.000951185)
(-0.0273055 -0.00226166 0.00170086)
(-0.0141228 -0.00172031 0.00139485)
(-0.0038879 -0.00168908 0.000789469)
(-0.0102845 0.0576932 -0.0125926)
(-0.0585218 0.0287082 -0.0018419)
(-0.0552708 -0.00730663 0.00190527)
(-0.0430119 -0.0192985 -0.000464833)
(-0.0302773 -0.0201599 -0.00167966)
(-0.0192253 -0.0171418 -0.00170304)
(-0.0105621 -0.0132009 -0.00154545)
(-0.00453301 -0.00978058 -0.00167339)
(-0.195681 0.224414 -0.421829)
(-0.043671 0.0259146 0.0152388)
(-0.019103 -0.012775 0.022783)
(-0.00970424 -0.0253001 0.00953866)
(-0.00552994 -0.0264987 0.00237307)
(-0.00307479 -0.0229867 -0.000116388)
(-0.00125386 -0.0181941 -0.000825673)
(0.000130068 -0.0136768 -0.00134382)
(-0.30736 0.0827439 -0.584323)
(-0.0102389 0.0204871 0.027167)
(0.0186185 -0.00603957 0.0373385)
(0.0241885 -0.0175531 0.0191333)
(0.0198797 -0.0206387 0.0067728)
(0.013319 -0.0192101 0.00170081)
(0.00767117 -0.0161144 0.000197046)
(0.00374342 -0.0122806 -0.000217502)
(-0.302502 0.0378423 -0.612568)
(-6.77496e-05 0.00999054 0.0299865)
(0.0346883 0.00291377 0.043187)
(0.0397015 -0.00223527 0.0231716)
(0.0318038 -0.00577562 0.00864029)
(0.0212058 -0.00781187 0.00251401)
(0.0120645 -0.008361 0.000615913)
(0.00563784 -0.00721857 0.000110562)
(-0.304449 -0.0169823 -0.613412)
(-0.0048526 -0.000175256 0.0299362)
(0.0244367 0.0120045 0.0407327)
(0.029251 0.0136589 0.0210718)
(0.0239722 0.00975801 0.00729777)
(0.0165452 0.00434906 0.0018867)
(0.00958385 0.000174863 0.000360062)
(0.00452693 -0.00158727 -3.51577e-05)
(-0.311415 -0.0610334 -0.585311)
(-0.0374669 0.00221264 0.020549)
(-0.0152831 0.0231382 0.0278849)
(-0.00419528 0.0238196 0.0116908)
(0.00124416 0.0177233 0.00298236)
(0.00303155 0.0104276 -5.9747e-06)
(0.00262747 0.0046931 -0.000502837)
(0.00136954 0.00164201 -0.000480688)
(-0.0953736 -0.224832 -0.196046)
(-0.0782752 -0.00320128 0.00207765)
(-0.0587674 0.0205275 0.00963048)
(-0.0356275 0.0182006 0.00234342)
(-0.018721 0.0124737 -0.000619717)
(-0.00831728 0.00727239 -0.000948586)
(-0.00307428 0.00335566 -0.000643286)
(-0.00106548 0.00147998 -0.00038695)
(-0.0429461 0.00321147 -4.32987e-05)
(0.000415526 0.0404842 -0.0105688)
(-0.0506677 0.0265645 0.00191104)
(0.000854116 -0.00617083 0.0143624)
(-0.0518938 0.00390456 0.00672462)
(-0.0104426 0.0483937 0.0120412)
(-0.0464584 0.0358347 0.00710703)
(-0.0712101 0.00240242 -0.0030497)
(-0.0554049 0.021628 0.00174707)
(-0.0662936 -0.00667947 0.00111729)
(-0.0572043 0.00301617 0.00635795)
(-0.0741869 -0.000908877 0.00389147)
(-0.0605052 0.0188699 0.00374551)
(-0.0661612 0.0047847 0.00316672)
(-0.0632467 0.00207485 -0.00352433)
(-0.0656279 -0.00902285 0.00104801)
(-0.055188 -0.0173114 0.0010934)
(-0.0740078 -0.0013477 0.00347993)
(-0.0646684 -0.00252131 0.00120007)
(-0.0653307 -0.00527362 0.00206122)
(-0.0604009 -0.0107211 0.00234555)
(-0.0458551 0.00165723 -0.00335485)
(-0.0532635 -0.0175503 0.00103289)
(-0.0401272 -0.0161839 0.000975702)
(-0.0625377 -0.00265161 0.000865739)
(-0.0465607 -0.00266738 -0.000758804)
(-0.0536634 -0.0132668 0.00223823)
(-0.046066 -0.0139039 0.00230793)
(-0.0287567 0.00136142 -0.00298968)
(-0.0382437 -0.015727 0.000882271)
(-0.0262661 -0.0121487 0.000721974)
(-0.0442501 -0.00266378 -0.000940207)
(-0.0292022 -0.00233273 -0.00164562)
(-0.0384614 -0.0136013 0.00189104)
(-0.0311899 -0.0125993 0.00168812)
(-0.015144 0.000991398 -0.00243263)
(-0.024648 -0.0116179 0.000629899)
(-0.0147865 -0.00836378 0.000503594)
(-0.0272975 -0.00226412 -0.001692)
(-0.0154529 -0.00182684 -0.00147518)
(-0.0245568 -0.0113801 0.0013426)
(-0.0186612 -0.0100247 0.00112331)
(-0.00393387 0.00026128 -0.00195355)
(-0.0135559 -0.0079539 0.000438204)
(-0.00646851 -0.00602236 0.000337808)
(-0.0141146 -0.00172197 -0.00139023)
(-0.00512743 -0.00174261 -0.000907341)
(-0.0135184 -0.00867525 0.00105611)
(-0.00927499 -0.00763369 0.000957013)
(0.00105811 0.00069431 -0.000305577)
(-0.00563498 -0.00582507 0.000313849)
(-0.00060691 -0.00245958 0.000949565)
(-0.00388158 -0.00168745 -0.00079284)
(0.00182692 0.00108467 -0.000432247)
(-0.00577755 -0.00650963 0.00107385)
(-0.00120486 -0.00481548 0.00209227)
(-0.0513423 0.0294205 0.0021872)
(0.00531982 0.0927895 -0.0122371)
(-0.0678258 0.0435137 0.00258872)
(-0.0102583 0.0576915 0.0126366)
(-0.0513983 0.0540053 0.00997501)
(-0.0838987 0.250562 0.171121)
(-0.0692925 0.0710995 0.0137224)
(-0.0647277 -0.00847127 0.000729775)
(-0.0714256 0.0324769 0.000729907)
(-0.0536029 -0.0204424 -0.00359067)
(-0.0585051 0.0287088 0.00182372)
(-0.0595059 0.00740112 -0.00149226)
(-0.056368 0.034827 -0.00354003)
(-0.0496851 0.00752486 -0.0116542)
(-0.0521355 -0.0203669 0.000826786)
(-0.0495455 -0.0240547 -0.00321718)
(-0.0265352 -0.0356098 -0.00173495)
(-0.0552563 -0.00731118 -0.00191327)
(-0.049469 -0.0155409 -0.000788839)
(-0.0420586 -0.0103945 -0.0096329)
(-0.0351355 -0.0195467 -0.00691491)
(-0.0375462 -0.0190894 0.000869942)
(-0.0242983 -0.0357773 -0.00122627)
(-0.0146499 -0.0329032 -0.00013241)
(-0.0429961 -0.0193052 0.000463705)
(-0.0365906 -0.0204576 0.00147434)
(-0.0294896 -0.023795 -0.00334921)
(-0.0243198 -0.0251837 -0.0010191)
(-0.0246232 -0.0145167 0.000713961)
(-0.0137049 -0.0321167 -3.03926e-05)
(-0.00903935 -0.0261271 0.000318299)
(-0.0302625 -0.0201679 0.00168438)
(-0.0245891 -0.0189258 0.00194448)
(-0.0198244 -0.0247092 0.000181093)
(-0.0159284 -0.0231942 0.00103633)
(-0.0139192 -0.0101344 0.000536262)
(-0.00849686 -0.0252032 0.000290671)
(-0.00521934 -0.0194776 0.000348542)
(-0.0192137 -0.0171505 0.00171191)
(-0.0147493 -0.0153078 0.00166664)
(-0.0123036 -0.0211173 0.00120435)
(-0.00929826 -0.0188883 0.0013724)
(-0.00611593 -0.00721855 0.000399565)
(-0.00477112 -0.0186671 0.000317316)
(-0.00214476 -0.0143138 0.000409438)
(-0.0105539 -0.0132068 0.00155438)
(-0.00734676 -0.0115062 0.00154905)
(-0.0064776 -0.0164923 0.00139575)
(-0.00420196 -0.0143167 0.0015585)
(-0.000613106 -0.00469979 0.000921758)
(-0.00188654 -0.0138869 0.000459814)
(-0.000496537 -0.014171 1.22013e-06)
(-0.00452883 -0.00977854 0.00167852)
(-0.00105432 -0.00580833 0.00218045)
(-0.00227393 -0.0123484 0.00192167)
(0.000208812 -0.00985515 0.00174954)
(-0.0719525 0.0447693 0.00274983)
(0.00925329 0.120735 -0.0169593)
(-0.0915374 0.0384317 0.00296298)
(-0.195665 0.224452 0.421787)
(-0.0870717 0.0561795 0.0190925)
(-0.310868 0.0831485 0.577435)
(-0.071686 0.0457328 0.00863504)
(-0.0517348 -0.019926 -0.00562929)
(-0.0921074 0.0290604 -0.000665691)
(-0.0434749 -0.0155836 -0.00859611)
(-0.0436602 0.0259208 -0.01525)
(-0.0261102 0.000481921 -0.0286428)
(-0.0289005 0.0206004 -0.0209274)
(-0.00780228 0.000458695 -0.0353674)
(-0.0224658 -0.0357906 -0.00272356)
(-0.0354632 -0.0193063 -0.00764867)
(0.00243348 -0.0328664 -0.00504072)
(-0.0190846 -0.0127766 -0.0227924)
(-0.0120404 -0.0215958 -0.0161919)
(-0.00222576 -0.0109525 -0.0281665)
(0.00571803 -0.0192057 -0.0212417)
(-0.0108013 -0.033531 -0.000500645)
(0.00579937 -0.033552 -0.00411343)
(0.0146793 -0.0321524 -0.00166589)
(-0.00968138 -0.0253047 -0.00954628)
(-0.00669487 -0.0268724 -0.00497393)
(0.00582799 -0.0230698 -0.0132007)
(0.00763427 -0.0250315 -0.00788811)
(-0.00617289 -0.0268211 0.000152824)
(0.0149213 -0.0315037 -0.00129031)
(0.0118983 -0.0262452 -0.000332866)
(-0.00550657 -0.026504 -0.00237519)
(-0.00395943 -0.0251157 -0.000661427)
(0.00653939 -0.0250985 -0.00416824)
(0.00612748 -0.0241827 -0.00181633)
(-0.00361852 -0.0201592 0.000266662)
(0.0112562 -0.0254813 -0.000230976)
(0.00657095 -0.0206604 4.13745e-05)
(-0.00305672 -0.0229937 0.000121527)
(-0.0020218 -0.0207874 0.000597788)
(0.00494161 -0.0223795 -0.000573022)
(0.00410425 -0.0204478 0.000138557)
(-0.0015023 -0.0149138 0.000345148)
(0.00599104 -0.0199933 5.1092e-05)
(0.00247092 -0.0159731 0.000234004)
(-0.0012435 -0.0182007 0.000834644)
(-0.000432358 -0.0159517 0.00107024)
(0.00322733 -0.0181194 0.00045652)
(0.0024995 -0.0159542 0.000706403)
(-0.00047405 -0.0149321 -0.000134193)
(0.00193334 -0.0155167 0.000275143)
(-0.000460458 -0.0159345 -0.00090295)
(0.000132546 -0.013675 0.00134951)
(0.000536149 -0.0096424 0.0016801)
(0.00186027 -0.0136064 0.000970703)
(0.00132399 -0.00860114 0.00082271)
(-0.0931904 0.035905 0.00286956)
(0.0127642 0.108347 -0.0153933)
(-0.101559 0.0189931 0.00175541)
(-0.307347 0.0827851 0.584304)
(-0.0581856 0.0398899 0.0103604)
(-0.301627 0.038431 0.610973)
(-0.0543105 0.0275597 0.012876)
(-0.0421129 -0.014872 -0.0100309)
(-0.101024 0.0154421 -0.00305297)
(-0.0375747 -0.00281418 -0.0128703)
(-0.0102275 0.020493 -0.0271791)
(0.0128438 0.00415371 -0.0438444)
(-0.00214177 0.0169649 -0.0292525)
(0.0233924 0.006654 -0.0483998)
(0.00558324 -0.0313059 -0.00618117)
(-0.0273715 -0.00453344 -0.0117868)
(0.019126 -0.0120546 -0.00819402)
(0.0186411 -0.00604053 -0.0373476)
(0.0253981 -0.0135589 -0.0287118)
(0.0298423 -0.00101407 -0.0406966)
(0.0365275 -0.00660758 -0.0327244)
(0.0179614 -0.030691 -0.00213515)
(0.0232182 -0.0126148 -0.00697528)
(0.0334399 -0.014217 -0.00286316)
(0.0242164 -0.0175548 -0.019141)
(0.0235703 -0.0198937 -0.0117448)
(0.0342988 -0.010344 -0.0216782)
(0.0328679 -0.0125214 -0.013813)
(0.0142085 -0.025185 -0.000531158)
(0.0333254 -0.0142412 -0.0022517)
(0.0253059 -0.013746 -0.000654498)
(0.0199073 -0.0206401 -0.00677768)
(0.0171587 -0.0202329 -0.00350601)
(0.0273395 -0.0140861 -0.00781044)
(0.0235991 -0.0143435 -0.00426843)
(0.00789551 -0.0200148 -8.39988e-05)
(0.0239638 -0.0136199 -0.000492493)
(0.0142935 -0.0125648 -9.92959e-05)
(0.0133418 -0.0192121 -0.00169834)
(0.0105992 -0.0178087 -0.000690469)
(0.0183079 -0.0142488 -0.0021307)
(0.0144448 -0.013786 -0.00096862)
(0.00299324 -0.0156014 0.000132418)
(0.0130593 -0.0123765 -7.94791e-05)
(0.00549435 -0.0107994 0.000148965)
(0.00768392 -0.0161171 -0.000188443)
(0.00559224 -0.0143057 0.000119133)
(0.010411 -0.0127958 -0.000377683)
(0.00746619 -0.0117498 -3.00873e-05)
(-0.000460038 -0.0155176 -0.000991255)
(0.00444141 -0.0105413 0.0001855)
(-0.000489945 -0.0102294 -0.00142409)
(0.00374404 -0.012277 0.000222586)
(0.00164938 -0.00836836 0.000760133)
(0.00489118 -0.0100698 0.000112177)
(0.00265786 -0.00562356 0.000780145)
(-0.102264 0.0165389 0.00196308)
(0.0173343 -0.0651906 -0.0106977)
(-0.102536 0.00381427 0.00246442)
(-0.30247 0.0378784 0.612557)
(-0.0542728 0.0147152 0.0153197)
(-0.304929 -0.0184342 0.614372)
(-0.0550491 0.00213208 0.0169961)
(-0.0374389 -0.00109586 -0.0131162)
(-0.103091 0.00513612 -0.00290725)
(-0.039778 0.012401 -0.0131)
(-4.33938e-05 0.00998738 -0.0300199)
(0.0269935 0.0057502 -0.0502735)
(-0.00083031 0.00532661 -0.0298614)
(0.0256583 0.00709391 -0.0505279)
(0.0201272 -0.00882828 -0.009008)
(-0.0294668 0.0130732 -0.0119862)
(0.0178252 0.0134863 -0.00931206)
(0.0347192 0.00291332 -0.0431975)
(0.0417316 0.000128986 -0.0344094)
(0.0329923 0.0077195 -0.043383)
(0.0400162 0.00735027 -0.0342965)
(0.0345547 -0.01145 -0.00307577)
(0.0217882 0.0132713 -0.00799694)
(0.032625 0.00932602 -0.0030124)
(0.0397321 -0.00223327 -0.0231783)
(0.0375836 -0.00418245 -0.0148272)
(0.0381465 0.00604942 -0.0230628)
(0.0362113 0.00439943 -0.0146382)
(0.0261763 -0.0117082 -0.000781396)
(0.0325132 0.0085827 -0.00235183)
(0.024838 0.00351198 -0.000742492)
(0.0318333 -0.00577144 -0.00864558)
(0.0271427 -0.00696764 -0.00481192)
(0.0308024 0.00211699 -0.00848863)
(0.0263193 0.000333687 -0.00468723)
(0.0148046 -0.0111559 -0.000171955)
(0.0235449 0.00284007 -0.000515159)
(0.013968 -0.000897555 2.30439e-06)
(0.0212307 -0.00780784 -0.00251243)
(0.0167011 -0.0082573 -0.00123961)
(0.0206328 -0.00168443 -0.00239779)
(0.0163014 -0.0030308 -0.00117521)
(0.00570083 -0.0098743 9.76237e-05)
(0.0127566 -0.00130491 5.86241e-06)
(0.00532335 -0.00307661 0.000113018)
(0.0120788 -0.00835776 -0.000607601)
(0.00859696 -0.00804832 -0.000225999)
(0.0117473 -0.0040537 -0.000583205)
(0.00843131 -0.00448574 -0.000241843)
(-0.00047925 -0.00923919 -0.00146398)
(0.00431527 -0.00312396 0.00015297)
(-0.000220076 -0.00187699 -0.00142735)
(0.00563846 -0.00721325 -0.000105427)
(0.00294514 -0.00517153 0.000650986)
(0.00549451 -0.00426089 -0.000118083)
(0.00306352 -0.00186403 0.000374723)
(-0.102579 0.00225073 0.00213036)
(0.0100666 -0.108556 -0.0174976)
(-0.101324 -0.00713436 0.00229042)
(-0.304397 -0.0169781 0.613425)
(-0.0561148 -0.00872682 0.0140039)
(-0.308209 -0.0611272 0.591669)
(-0.0611022 -0.0195034 0.0127442)
(-0.0404951 0.0142915 -0.0128121)
(-0.102172 -0.000303511 -0.00192656)
(-0.0513545 0.0276992 -0.00991298)
(-0.0048229 -0.000177428 -0.0299322)
(0.0190638 0.00712697 -0.0492664)
(-0.0152346 -0.00160244 -0.0277648)
(0.00532334 0.0111819 -0.0447214)
(0.0161001 0.0167213 -0.00819092)
(-0.0428906 0.0297479 -0.00900188)
(-0.00236073 0.0336357 -0.0055503)
(0.0244655 0.0120087 -0.0407394)
(0.0312375 0.0140076 -0.0323159)
(0.00974868 0.0175624 -0.0373483)
(0.016615 0.0206974 -0.0279023)
(0.0309092 0.0119246 -0.00279398)
(0.00117783 0.0332064 -0.00441962)
(0.0117222 0.0255102 -0.00175043)
(0.0292801 0.0136664 -0.0210791)
(0.0287163 0.0121727 -0.0132056)
(0.0163676 0.0201225 -0.0180277)
(0.017263 0.0183768 -0.0106462)
(0.0235221 0.00542828 -0.000720803)
(0.0121658 0.0240771 -0.00131419)
(0.0105127 0.0147625 -0.000355586)
(0.0240018 0.00976695 -0.00730355)
(0.0210632 0.00724142 -0.00394356)
(0.0150889 0.015316 -0.00595202)
(0.0137369 0.011987 -0.00289664)
(0.0131797 0.000405197 5.58184e-05)
(0.0100273 0.013542 -0.000233359)
(0.00604008 0.00674013 -2.4346e-05)
(0.01657 0.00435902 -0.00188396)
(0.0132051 0.00217622 -0.000837092)
(0.011152 0.00845309 -0.00127885)
(0.0091682 0.00562607 -0.000480321)
(0.00501139 -0.00220184 0.000134111)
(0.00551496 0.0059401 -3.97585e-06)
(0.00212101 0.00221551 7.78757e-05)
(0.00959838 0.000184269 -0.000350766)
(0.00688363 -0.00101543 -9.09968e-05)
(0.00677811 0.0030779 -0.000129045)
(0.00493612 0.00138883 2.75001e-05)
(-0.000456807 -0.000812494 -0.00130609)
(0.00163552 0.00197851 8.36801e-05)
(-0.000260945 0.004128 -0.000781828)
(0.0045269 -0.00157976 4.09221e-05)
(0.00274556 -0.00150404 0.000507142)
(0.00323842 0.000442589 6.00294e-06)
(0.00132621 0.000846816 0.000443198)
(-0.101118 -0.00885718 0.00263373)
(0.00525137 -0.0772916 -0.0168681)
(-0.096317 -0.01168 0.00219552)
(-0.311421 -0.0610308 0.585298)
(-0.0764388 -0.0219847 0.0125187)
(-0.207218 -0.189819 0.441301)
(-0.0945063 -0.0260886 0.0242488)
(-0.0539119 0.0285642 -0.00849176)
(-0.099391 -0.00302994 -0.000955505)
(-0.0723501 0.0289873 -0.00491246)
(-0.0374525 0.00221598 -0.0205461)
(-0.0190983 0.0176041 -0.0354023)
(-0.057547 0.00136943 -0.0148098)
(-0.0426177 0.0193925 -0.0280416)
(-0.00636024 0.0345964 -0.00458703)
(-0.0668706 0.0303571 -0.00431265)
(-0.035624 0.029838 -0.00168314)
(-0.0152618 0.0231439 -0.0278904)
(-0.00657792 0.0258354 -0.0200792)
(-0.0356491 0.0244734 -0.0217827)
(-0.0256961 0.0259569 -0.0145901)
(0.0081765 0.0262606 -0.0012438)
(-0.0323773 0.0287357 -0.00110957)
(-0.0170405 0.0202446 0.000122706)
(-0.00417157 0.0238283 -0.0116977)
(-0.000247474 0.0217271 -0.0064545)
(-0.0198787 0.0233899 -0.00772606)
(-0.0133714 0.0205245 -0.00346681)
(0.00809178 0.015298 -9.21818e-05)
(-0.0154703 0.0189217 0.000270068)
(-0.00792748 0.0112426 0.000477168)
(0.00126971 0.0177352 -0.00298374)
(0.0026839 0.0142912 -0.00096439)
(-0.00920612 0.0167461 -0.00117302)
(-0.00551295 0.0133606 0.0001319)
(0.00468983 0.00713619 0.000148449)
(-0.00714383 0.0102361 0.000475596)
(-0.00337352 0.00506311 0.000321569)
(0.00305345 0.0104423 1.27776e-05)
(0.00307564 0.00746758 0.000401562)
(-0.00312703 0.00988793 0.000609115)
(-0.00146349 0.00719461 0.000727145)
(0.00156 0.00252353 0.000179445)
(-0.00299615 0.00446269 0.000289163)
(-0.00149779 0.00198552 0.000184997)
(0.00264057 0.00470695 0.000514373)
(0.00202482 0.00284105 0.000508054)
(-0.000545668 0.00463889 0.00069372)
(-0.000100851 0.00297176 0.00060087)
(-0.000265946 0.00444347 -0.000646359)
(-0.0013989 0.0018506 0.000169346)
(-0.000241389 0.00318054 0.000283231)
(0.00137145 0.00165073 0.000488216)
(0.000965558 0.00101867 0.000435509)
(4.68183e-06 0.00189144 0.000486828)
(0.000129223 0.00130042 0.000303651)
(-0.0947985 -0.0102483 0.00231955)
(0.00498291 0.00194443 -0.00452887)
(-0.0972156 -0.00280234 -0.00151585)
(-0.0953764 -0.224833 0.196025)
(-0.0846514 -0.0392326 0.0225614)
(0.00400307 0.0133235 0.0509847)
(-0.0986154 -0.00357359 0.0143495)
(-0.0757993 0.0281041 -0.00293645)
(-0.102315 -0.00239824 -0.00214434)
(-0.0926842 -0.0016288 -0.004621)
(-0.0782625 -0.00320214 -0.00207952)
(-0.0696669 0.0156276 -0.011355)
(-0.102932 -0.000978736 0.0104487)
(-0.0878602 0.0045721 -0.00112379)
(-0.0398878 0.0276728 -0.000579652)
(-0.0881209 -0.00165529 -0.00473129)
(-0.0555842 -0.00184312 -0.00461011)
(-0.0587521 0.0205318 -0.00963108)
(-0.0461556 0.0208108 -0.00590229)
(-0.0831201 0.00474935 -0.00116007)
(-0.0518497 0.00413646 0.000255852)
(-0.0201621 0.0181708 0.000592534)
(-0.0515539 -0.00184492 -0.00451319)
(-0.029003 -0.00167226 -0.00357789)
(-0.0356104 0.018209 -0.00233903)
(-0.0260745 0.0155237 -0.000363008)
(-0.0481287 0.00389808 0.000472751)
(-0.0268631 0.00294487 0.000610012)
(-0.00971447 0.00980507 0.000632552)
(-0.0265396 -0.00161564 -0.00341426)
(-0.013493 -0.0011461 -0.00226432)
(-0.0187027 0.0124857 0.000631613)
(-0.0126546 0.00983942 0.000924924)
(-0.0245405 0.00267426 0.000580838)
(-0.0118527 0.00191653 9.6487e-06)
(-0.00420196 0.0042921 0.000365709)
(-0.0121641 -0.0010739 -0.00210503)
(-0.00549257 -0.000634696 -0.00116121)
(-0.00830156 0.00728541 0.000966438)
(-0.0051208 0.00523115 0.000736193)
(-0.010576 0.00167992 -3.7091e-05)
(-0.00396114 0.00106768 -0.000170025)
(-0.00180792 0.001686 0.000181486)
(-0.00489229 -0.000583897 -0.00104)
(-0.00212433 -0.000250928 -0.000526587)
(-0.00306348 0.00336709 0.000659701)
(-0.00176679 0.00214702 0.000493287)
(-0.00342711 0.00087479 -4.94123e-05)
(-0.00130448 0.000502472 0.000107039)
(-0.000290952 0.00250772 0.000329821)
(-0.0017886 -0.000189619 -0.000487065)
(0.000435359 -0.000365634 -6.84665e-05)
(-0.00106064 0.00148656 0.000397958)
(-5.94533e-05 0.00128193 0.000245865)
(-0.00109557 0.000426523 0.000104027)
(0.000376217 -0.000294586 -0.000355434)
(-0.051033 0.00454476 0.00655842)
(-0.00956549 0.0493119 0.0137492)
(-0.0441676 0.0428791 0.00402915)
(0.00478779 -0.00379169 0.00984272)
(-0.0429849 0.00660989 0.000155028)
(-0.00597017 0.0514058 0.00272635)
(-0.0421035 0.0469647 0.000210949)
(-0.0740663 -0.000432807 0.00438416)
(-0.0550609 0.0213706 0.00114001)
(-0.0620574 0.00835539 0.0010152)
(-0.0504453 0.00547788 0.000366556)
(-0.0738361 0.000879676 0.000574784)
(-0.0523552 0.0249872 -0.000800889)
(-0.0604199 0.0116118 -0.000569679)
(-0.064679 -0.0021575 0.00184636)
(-0.0616592 -0.00293047 0.000260943)
(-0.0580715 -0.00787384 0.000613625)
(-0.0738463 0.000252621 0.000553694)
(-0.0653494 -0.00127781 0.00034433)
(-0.0606061 -0.000552202 -0.00050016)
(-0.0574908 -0.00586222 -0.000171127)
(-0.0466107 -0.00237801 -0.00014166)
(-0.0521815 -0.010905 0.000775447)
(-0.0452611 -0.0118068 0.000948032)
(-0.0632081 -0.00152117 0.000313632)
(-0.0471883 -0.00188206 0.000140132)
(-0.051958 -0.00943535 7.62718e-05)
(-0.0452171 -0.0106387 0.000250197)
(-0.0291967 -0.00211767 -0.00111281)
(-0.0383874 -0.0119836 0.000877564)
(-0.0313322 -0.0113816 0.000867354)
(-0.0448197 -0.00194072 0.000119151)
(-0.0294249 -0.00181402 2.34186e-05)
(-0.0385294 -0.0111722 0.00028413)
(-0.0315206 -0.0107786 0.000325623)
(-0.0153733 -0.00164275 -0.00105566)
(-0.0249568 -0.0103776 0.000752212)
(-0.0190894 -0.00929101 0.000717932)
(-0.0274771 -0.00177776 1.37326e-05)
(-0.0152589 -0.00141655 -6.78698e-06)
(-0.025195 -0.00993444 0.000302869)
(-0.0193067 -0.00891897 0.000300627)
(-0.0051101 -0.00172669 -0.00053846)
(-0.0139786 -0.00782882 0.000744656)
(-0.00961681 -0.00693044 0.000745383)
(-0.0139341 -0.00128045 -5.75185e-06)
(-0.00468092 -0.00142964 3.35063e-05)
(-0.0141478 -0.00743958 0.000333403)
(-0.00970702 -0.0065446 0.000327008)
(0.00186669 0.00116917 -0.000220729)
(-0.005973 -0.00588506 0.000856167)
(-0.00127672 -0.00450479 0.0019159)
(-0.00338258 -0.00129944 3.73497e-05)
(0.00179044 0.00103765 2.91363e-05)
(-0.00594345 -0.00539515 0.000353183)
(-0.00133316 -0.00324898 0.000104988)
(-0.0544057 0.0607058 0.00211484)
(-0.180004 0.509391 0.109043)
(-0.0854063 0.0689775 -0.0073542)
(-0.00655928 0.063423 0.00253637)
(-0.0555413 0.0611215 -0.00202877)
(-0.311131 0.597574 -0.00171626)
(-0.0697027 0.0529385 -0.00943184)
(-0.00112622 -0.00548234 0.00201329)
(-0.00223958 -0.0106047 0.00161737)
(0.000360428 -0.00880656 0.00186222)
(-0.00482289 -0.00786338 0.000505335)
(-0.00117017 -0.00423025 0.000115291)
(-0.00202408 -0.00945472 0.000593594)
(0.00108145 -0.00637396 0.000142464)
(-0.0478374 0.000128477 -0.0458098)
(-0.178425 -0.0052565 0.211328)
(0.0613976 0.0140311 -0.0896175)
(-0.187758 0.231842 -0.0342752)
(0.0534712 -0.057842 -0.0178006)
(0.377344 0.000663597 -0.000114903)
(0.244236 -0.0153107 -0.0278247)
(0.000610038 -0.00879121 0.00180593)
(0.00217833 -0.0111324 0.000746754)
(0.00177588 -0.00760666 0.000903472)
(0.00105702 -0.01006 0.000389055)
(0.00117519 -0.00605404 6.61348e-05)
(0.00236458 -0.0096104 0.000244533)
(0.00254318 -0.00477776 1.84965e-05)
(0.0938814 0.0215745 -0.0977464)
(-0.190105 -0.0219436 0.231597)
(0.096387 0.0138636 -0.0998963)
(0.378182 0.00077997 -0.000105709)
(0.288834 0.00291666 -0.0322989)
(0.379605 6.88e-05 -7.17549e-05)
(0.293501 0.005221 -0.0347801)
(0.00194273 -0.00748597 0.00088223)
(0.00534859 -0.00817872 -1.37333e-05)
(0.00326056 -0.00496837 0.0010642)
(0.00431808 -0.00832636 3.11902e-05)
(0.00273706 -0.00469435 1.72933e-05)
(0.00540326 -0.00707805 -6.41259e-05)
(0.00431856 -0.00326309 8.79828e-06)
(0.0946086 0.0086082 -0.0999971)
(-0.194338 -0.0388015 0.23528)
(0.0936479 -0.00079525 -0.0999182)
(0.37963 0.000186114 -7.15905e-05)
(0.293356 0.00302304 -0.0353195)
(0.379636 -0.000134912 -7.24066e-05)
(0.29306 0.000367589 -0.0354012)
(0.00337145 -0.00476589 0.00105126)
(0.00612291 -0.00366884 -0.000183871)
(0.0033458 -0.00179932 0.000947463)
(0.00632558 -0.00514371 -0.00013421)
(0.00441818 -0.00315021 8.55508e-06)
(0.00602767 -0.00332641 -0.000107189)
(0.00426768 -0.00144087 9.80894e-06)
(0.0940306 -0.005323 -0.100301)
(-0.184036 -0.0540142 0.218934)
(0.0911266 -0.0116817 -0.0977361)
(0.379608 -1.78658e-05 -7.26548e-05)
(0.292282 -0.00143628 -0.0351313)
(0.378255 -0.000636901 -0.000101471)
(0.287209 0.0020303 -0.0326386)
(0.00321904 -0.00162279 0.000955374)